LAMMPS (23 Jun 2022)
OMP_NUM_THREADS environment is not set. Defaulting to 1 thread. (src/comm.cpp:98)
  using 1 OpenMP thread(s) per MPI task
# define variables

variable       spacing index 10.0
variable       lbox index 20.0
variable       sname string simplified_mc
variable       rtemp index 300


#package omp 4

units           real
atom_style      full
boundary        p p p
#pair_style      lj/cut/coul/long  14
pair_style      lj/charmm/coul/long/opt 9 10.00000
#pair_modify     mix arithmetic tail yes
#special_bonds   lj/coul 0.0 0.0 1.0
#kspace_style    ewald 0.0001
bond_style      harmonic
angle_style     harmonic
dihedral_style  harmonic
improper_style  umbrella
kspace_style    pppm 0.0001

# initialize a simple cumbic box for the initial structure

lattice        sc ${spacing}
lattice        sc 10.0
Lattice spacing in x,y,z = 10 10 10
region         mybox block 0 ${lbox} 0 ${lbox} 0 ${lbox} units box
region         mybox block 0 20.0 0 ${lbox} 0 ${lbox} units box
region         mybox block 0 20.0 0 20.0 0 ${lbox} units box
region         mybox block 0 20.0 0 20.0 0 20.0 units box
create_box     8 mybox                bond/types 13                angle/types 5                dihedral/types 11                improper/types 1                extra/bond/per/atom 13                extra/angle/per/atom 10                extra/dihedral/per/atom 20                extra/improper/per/atom 20                extra/special/per/atom 100
Created orthogonal box = (0 0 0) to (20 20 20)
  4 by 4 by 4 MPI processor grid

molecule       69 xlig.lammps.txt
Read molecule template 69:
  1 molecules
  0 fragments
  68 atoms with max type 7
  70 bonds with max type 10
  128 angles with max type 4
  188 dihedrals with max type 11
  39 impropers with max type 1
molecule       420 oleic.lammps.txt
Read molecule template 420:
  1 molecules
  0 fragments
  54 atoms with max type 6
  53 bonds with max type 13
  100 angles with max type 5
  141 dihedrals with max type 9
  9 impropers with max type 1


pair_modify          mix geometric
#neighbor             2.0 multi
#neigh_modify         every 2 delay 4 check yes
thermo_style         multi
thermo_modify        line multi format float %14.6f flush yes



# originally used box instead of single, which takes no args and auto populates the box until full
create_atoms   0 single 10 10 10   mol 69 42 units box
Created 68 atoms
  using box units in orthogonal box = (0 0 0) to (20 20 20)
  create_atoms CPU = 0.004 seconds
create_atoms   0 single 0 0 0  mol 420 42 units box
Created 54 atoms
  using box units in orthogonal box = (0 0 0) to (20 20 20)
  create_atoms CPU = 0.002 seconds


group xligand molecule == 69
0 atoms in group xligand
#group xligand id 1:68
#group xligand include molecule

group oleic_acid molecule == 420
0 atoms in group oleic_acid
#group oleic_acid id 69:122
#group oleic_acid include molecule



# coeffs
# Masses

mass    1 1.2011E+01 # C_3
mass    2 1.4007E+01 # N_3
mass    3 1.2011E+01 # C_R
mass    4 1.5999E+01 # O_2
mass    5 3.2060E+01 # S_3
mass    6 1.0080E+00 # H_
mass    7 1.0080E+00 # H___A
mass    8 1.5999E+01 # O_R


pair_coeff           1 1 0.09510000 3.47299041 # C_3 C_3
pair_coeff           2 2 0.07740000 3.26256026 # N_3 N_3
pair_coeff           3 3 0.09510000 3.47299041 # C_R C_R
pair_coeff           4 4 0.09570000 3.03315369 # O_2 O_2
pair_coeff           5 5 0.34400001 3.59032202 # S_3 S_3
pair_coeff           6 6 0.01520000 2.84642134 # H_ H_
pair_coeff           7 7 0.01520000 2.84642134 # H___A H___A
pair_coeff           8 8 0.09570000 3.03315369 # O_R O_R


pair_modify          mix geometric
neighbor             2.0 multi
neigh_modify         every 2 delay 4 check yes
thermo_style         multi
WARNING: New thermo_style command, previous thermo_modify settings will be lost (src/output.cpp:903)
thermo_modify        line multi format float %14.6f flush yes

bond_coeff           1 350 1.53000 # C_3 C_3
bond_coeff           2 350 1.09000 # C_3 H_
bond_coeff           3 350 1.46200 # N_3 C_3
bond_coeff           4 350 1.39200 # N_3 C_R
bond_coeff           5 525 1.39000 # C_R C_R
bond_coeff           6 350 1.02000 # C_R H_
bond_coeff           7 700 1.25000 # O_2 C_R
bond_coeff           8 350 1.73000 # S_3 C_R
bond_coeff           9 350 1.80000 # S_3 C_3
bond_coeff           10 350 1.36000 # S_3 H___A
bond_coeff           11 525 1.35000 # O_R C_R
bond_coeff           12 350 0.98000 # O_R H___A
bond_coeff           13 350 1.46000 # C_R C_3


angle_coeff          1 50 109.47100 # X C_3 X
angle_coeff          2 50 106.70000 # X N_3 X
angle_coeff          3 50 120 # X C_R X
angle_coeff          4 50 92.10000 # X S_3 X
angle_coeff          5 50 120 # X O_R X


dihedral_coeff       1 0.08333 -1 6 # C_R C_R C_3 X
dihedral_coeff       2 0.08333 -1 6 # O_2 C_R C_3 X
dihedral_coeff       3 0.08333 -1 6 # O_R C_R C_3 X
dihedral_coeff       4 0.11111 1 3 # X C_3 C_3 X
dihedral_coeff       5 0.16667 1 3 # X C_R C_3 X
dihedral_coeff       6 3.12500 -1 2 # X C_R C_R X
dihedral_coeff       7 0.16667 1 3 # X N_3 C_3 X
dihedral_coeff       8 0.12500 -1 6 # X N_3 C_R C_R
dihedral_coeff       9 6.25000 -1 2 # X O_R C_R X
dihedral_coeff       10 0.33333 1 3 # X S_3 C_3 X
dihedral_coeff       11 0.50000 -1 2 # X S_3 C_R X

improper_coeff       1 13.33333 0 # C_R X X X

timestep             0.5

print                .
.
print                ==========================================
==========================================
print                "500 steps CG Minimization"
500 steps CG Minimization
print                ==========================================
==========================================
print                .
.

dump                 1 all custom 25 ${sname}.min.lammpstrj id type xu yu zu vx vy vz
dump                 1 all custom 25 simplified_mc.min.lammpstrj id type xu yu zu vx vy vz
thermo               10
min_style            cg
minimize             1.0e-4 1.0e-4 500 5000

CITE-CITE-CITE-CITE-CITE-CITE-CITE-CITE-CITE-CITE-CITE-CITE-CITE

Your simulation uses code contributions which should be cited:

- neighbor multi command: doi:10.1016/j.cpc.2008.03.005, doi:10.1007/s40571-020-00361-2

@Article{Intveld08,
 author =  {P.{\,}J.~in{\,}'t~Veld and S.{\,}J.~Plimpton and G.{\,}S.~Grest},
 title =   {Accurate and Efficient Methods for Modeling Colloidal
            Mixtures in an Explicit Solvent using Molecular Dynamics},
 journal = {Comp.~Phys.~Comm.},
 year =    2008,
 volume =  179,
 pages =   {320--329}
}

@article{Stratford2018,
 author = {Stratford, Kevin and Shire, Tom and Hanley, Kevin},
 title = {Implementation of multi-level contact detection in LAMMPS},
 year = {2018}
}

@article{Shire2020,
 author = {Shire, Tom and Hanley, Kevin J. and Stratford, Kevin},
 title = {DEM simulations of polydisperse media: efficient contact
          detection applied to investigate the quasi-static limit},
 journal = {Computational Particle Mechanics},
 year = {2020}
}

CITE-CITE-CITE-CITE-CITE-CITE-CITE-CITE-CITE-CITE-CITE-CITE-CITE

WARNING: Using 'neigh_modify every 1 delay 0 check yes' setting during minimization (src/min.cpp:187)
PPPM initialization ...
WARNING: System is not charge neutral, net charge = -0.0006 (src/kspace.cpp:327)
  using 12-bit tables for long-range coulomb (src/kspace.cpp:342)
  G vector (1/distance) = 0.14809026
  grid = 3 3 3
  stencil order = 5
  estimated absolute RMS force accuracy = 0.031780157
  estimated relative force accuracy = 9.5704998e-05
  using double precision FFTW3
  3d grid and FFT values/proc = 216 3
Generated 28 of 28 mixed pair_coeff terms from geometric mixing rule
Neighbor list info ...
  update every 1 steps, delay 0 steps, check yes
  max neighbors/atom: 2000, page size: 100000
  master list distance cutoff = 12
  ghost atom cutoff = 12
  binsize = 6, bins = 4 4 4
  1 neighbor lists, perpetual/occasional/extra = 1 0 0
  (1) pair lj/charmm/coul/long/opt, perpetual
      attributes: half, newton on
      pair build: half/multi/newton
      stencil: half/multi/3d
      bin: multi
Per MPI rank memory allocation (min/avg/max) = 30.35 | 30.94 | 32.25 Mbytes
------------ Step              0 ----- CPU =            0 (sec) -------------
TotEng   =    3850.584358 KinEng   =       0.000000 Temp     =       0.000000 
PotEng   =    3850.584358 E_bond   =     110.088059 E_angle  =      36.601372 
E_dihed  =      19.805602 E_impro  =       3.329327 E_vdwl   =    3682.215493 
E_coul   =      24.727624 E_long   =     -26.183119 Press    =  133950.647719
------------ Step             10 ----- CPU =   0.00199053 (sec) -------------
TotEng   =     357.149395 KinEng   =       0.000000 Temp     =       0.000000 
PotEng   =     357.149395 E_bond   =      40.425751 E_angle  =     151.670741 
E_dihed  =      23.827231 E_impro  =       0.527516 E_vdwl   =     142.592621 
E_coul   =      24.280821 E_long   =     -26.175286 Press    =    7457.944758
------------ Step             20 ----- CPU =  0.005738022 (sec) -------------
TotEng   =     229.230369 KinEng   =       0.000000 Temp     =       0.000000 
PotEng   =     229.230369 E_bond   =      37.116297 E_angle  =     124.256552 
E_dihed  =      29.336297 E_impro  =       0.412744 E_vdwl   =      40.272742 
E_coul   =      24.007006 E_long   =     -26.171269 Press    =     938.082018
------------ Step             30 ----- CPU =   0.01059971 (sec) -------------
TotEng   =     219.927923 KinEng   =       0.000000 Temp     =       0.000000 
PotEng   =     219.927923 E_bond   =      36.221345 E_angle  =     129.603615 
E_dihed  =      30.287956 E_impro  =       0.417137 E_vdwl   =      25.451573 
E_coul   =      24.110795 E_long   =     -26.164496 Press    =      17.509748
------------ Step             40 ----- CPU =   0.01416125 (sec) -------------
TotEng   =     216.447289 KinEng   =       0.000000 Temp     =       0.000000 
PotEng   =     216.447289 E_bond   =      33.899514 E_angle  =     127.337984 
E_dihed  =      30.632540 E_impro  =       0.586086 E_vdwl   =      26.046600 
E_coul   =      24.102923 E_long   =     -26.158357 Press    =     239.103094
------------ Step             50 ----- CPU =   0.01793533 (sec) -------------
TotEng   =     211.395549 KinEng   =       0.000000 Temp     =       0.000000 
PotEng   =     211.395549 E_bond   =      32.220800 E_angle  =     126.423688 
E_dihed  =      31.331151 E_impro  =       0.673028 E_vdwl   =      23.005978 
E_coul   =      23.885428 E_long   =     -26.144522 Press    =     197.148603
------------ Step             60 ----- CPU =   0.02066833 (sec) -------------
TotEng   =     208.661543 KinEng   =       0.000000 Temp     =       0.000000 
PotEng   =     208.661543 E_bond   =      31.462783 E_angle  =     127.248862 
E_dihed  =      32.911343 E_impro  =       0.583466 E_vdwl   =      18.852177 
E_coul   =      23.743523 E_long   =     -26.140612 Press    =      20.860513
------------ Step             70 ----- CPU =   0.02429974 (sec) -------------
TotEng   =     207.134242 KinEng   =       0.000000 Temp     =       0.000000 
PotEng   =     207.134242 E_bond   =      30.624914 E_angle  =     125.673252 
E_dihed  =      33.069713 E_impro  =       0.458573 E_vdwl   =      19.835776 
E_coul   =      23.613275 E_long   =     -26.141260 Press    =      12.211306
------------ Step             80 ----- CPU =   0.02778207 (sec) -------------
TotEng   =     206.015938 KinEng   =       0.000000 Temp     =       0.000000 
PotEng   =     206.015938 E_bond   =      30.275454 E_angle  =     123.910722 
E_dihed  =      32.031524 E_impro  =       0.462281 E_vdwl   =      21.866946 
E_coul   =      23.614839 E_long   =     -26.145829 Press    =       0.488359
------------ Step             90 ----- CPU =    0.0311081 (sec) -------------
TotEng   =     204.455205 KinEng   =       0.000000 Temp     =       0.000000 
PotEng   =     204.455205 E_bond   =      31.691656 E_angle  =     123.475967 
E_dihed  =      30.514072 E_impro  =       0.592609 E_vdwl   =      20.740913 
E_coul   =      23.595918 E_long   =     -26.155930 Press    =    -239.467377
------------ Step            100 ----- CPU =   0.03440309 (sec) -------------
TotEng   =     203.170183 KinEng   =       0.000000 Temp     =       0.000000 
PotEng   =     203.170183 E_bond   =      31.347407 E_angle  =     124.386383 
E_dihed  =      29.540625 E_impro  =       0.569094 E_vdwl   =      19.931017 
E_coul   =      23.558448 E_long   =     -26.162789 Press    =    -198.858266
------------ Step            110 ----- CPU =   0.03795872 (sec) -------------
TotEng   =     202.198542 KinEng   =       0.000000 Temp     =       0.000000 
PotEng   =     202.198542 E_bond   =      30.508106 E_angle  =     124.112236 
E_dihed  =      28.722149 E_impro  =       0.540961 E_vdwl   =      20.980418 
E_coul   =      23.495602 E_long   =     -26.160929 Press    =      -1.209321
------------ Step            120 ----- CPU =   0.04099207 (sec) -------------
TotEng   =     201.493421 KinEng   =       0.000000 Temp     =       0.000000 
PotEng   =     201.493421 E_bond   =      31.173695 E_angle  =     124.528394 
E_dihed  =      28.372941 E_impro  =       0.606059 E_vdwl   =      19.543882 
E_coul   =      23.423480 E_long   =     -26.155030 Press    =     -81.249815
------------ Step            130 ----- CPU =   0.04425599 (sec) -------------
TotEng   =     200.996596 KinEng   =       0.000000 Temp     =       0.000000 
PotEng   =     200.996596 E_bond   =      30.839529 E_angle  =     125.542332 
E_dihed  =      28.433547 E_impro  =       0.639667 E_vdwl   =      18.291869 
E_coul   =      23.403458 E_long   =     -26.153807 Press    =    -105.157448
------------ Step            139 ----- CPU =   0.04737609 (sec) -------------
TotEng   =     200.684393 KinEng   =       0.000000 Temp     =       0.000000 
PotEng   =     200.684393 E_bond   =      30.753291 E_angle  =     124.977511 
E_dihed  =      28.288223 E_impro  =       0.614933 E_vdwl   =      18.767454 
E_coul   =      23.439619 E_long   =     -26.156639 Press    =     -44.134408
Loop time of 0.0475192 on 64 procs for 139 steps with 122 atoms

98.8% CPU use with 64 MPI tasks x 1 OpenMP threads

Minimization stats:
  Stopping criterion = energy tolerance
  Energy initial, next-to-last, final = 
      3850.58435808803   200.688116839597    200.68439261119
  Force two-norm initial, final = 7036.6482 8.9225544
  Force max component initial, final = 3170.4676 3.1624041
  Final line search alpha, max atom move = 0.011558147 0.036551531
  Iterations, force evaluations = 139 268

MPI task timing breakdown:
Section |  min time  |  avg time  |  max time  |%varavg| %total
---------------------------------------------------------------
Pair    | 0.00010164 | 0.00064244 | 0.0034729  |   0.0 |  1.35
Bond    | 3.9368e-05 | 0.00020211 | 0.001091   |   0.0 |  0.43
Kspace  | 0.020723   | 0.024179   | 0.025191   |   0.8 | 50.88
Neigh   | 0.0002561  | 0.00027268 | 0.00028801 |   0.0 |  0.57
Comm    | 0.010652   | 0.012095   | 0.013177   |   0.6 | 25.45
Output  | 0.0010794  | 0.001229   | 0.0019946  |   0.4 |  2.59
Modify  | 0          | 0          | 0          |   0.0 |  0.00
Other   |            | 0.008899   |            |       | 18.73

Nlocal:        1.90625 ave          10 max           0 min
Histogram: 37 8 5 0 2 2 1 1 2 6
Nghost:         370.25 ave         522 max         249 min
Histogram: 8 5 5 10 12 4 10 3 3 4
Neighs:        99.7656 ave         626 max           0 min
Histogram: 40 9 2 3 0 3 2 2 2 1

Total # of neighbors = 6385
Ave neighs/atom = 52.336066
Ave special neighs/atom = 10.967213
Neighbor list builds = 3
Dangerous builds = 0
min_style            sd
minimize             1.0e-4 1.0e-4 500 5000
WARNING: Using 'neigh_modify every 1 delay 0 check yes' setting during minimization (src/min.cpp:187)
PPPM initialization ...
  using 12-bit tables for long-range coulomb (src/kspace.cpp:342)
  G vector (1/distance) = 0.14809026
  grid = 3 3 3
  stencil order = 5
  estimated absolute RMS force accuracy = 0.031780157
  estimated relative force accuracy = 9.5704998e-05
  using double precision FFTW3
  3d grid and FFT values/proc = 216 3
Generated 28 of 28 mixed pair_coeff terms from geometric mixing rule
Per MPI rank memory allocation (min/avg/max) = 30.35 | 30.97 | 32.25 Mbytes
------------ Step            139 ----- CPU =            0 (sec) -------------
TotEng   =     200.684393 KinEng   =       0.000000 Temp     =       0.000000 
PotEng   =     200.684393 E_bond   =      30.753291 E_angle  =     124.977511 
E_dihed  =      28.288223 E_impro  =       0.614933 E_vdwl   =      18.767454 
E_coul   =      23.439619 E_long   =     -26.156639 Press    =     -44.134408
------------ Step            140 ----- CPU =  0.000563125 (sec) -------------
TotEng   =     200.667991 KinEng   =       0.000000 Temp     =       0.000000 
PotEng   =     200.667991 E_bond   =      30.659797 E_angle  =     125.049060 
E_dihed  =      28.289355 E_impro  =       0.615390 E_vdwl   =      18.771439 
E_coul   =      23.439599 E_long   =     -26.156648 Press    =     -45.933369
Loop time of 0.000696432 on 64 procs for 1 steps with 122 atoms

98.7% CPU use with 64 MPI tasks x 1 OpenMP threads

Minimization stats:
  Stopping criterion = energy tolerance
  Energy initial, next-to-last, final = 
       200.68439261119    200.68439261119   200.667991241886
  Force two-norm initial, final = 8.9225544 5.0354014
  Force max component initial, final = 3.1624041 1.1545177
  Final line search alpha, max atom move = 0.031621512 0.036507594
  Iterations, force evaluations = 1 2

MPI task timing breakdown:
Section |  min time  |  avg time  |  max time  |%varavg| %total
---------------------------------------------------------------
Pair    | 3.947e-06  | 1.1725e-05 | 4.5717e-05 |   0.0 |  1.68
Bond    | 6.1e-07    | 2.8133e-06 | 1.2684e-05 |   0.0 |  0.40
Kspace  | 0.00017978 | 0.00021995 | 0.00023386 |   0.0 | 31.58
Neigh   | 0          | 0          | 0          |   0.0 |  0.00
Comm    | 0.00011193 | 0.0001273  | 0.00013926 |   0.0 | 18.28
Output  | 0          | 0          | 0          |   0.0 |  0.00
Modify  | 0          | 0          | 0          |   0.0 |  0.00
Other   |            | 0.0003346  |            |       | 48.05

Nlocal:        1.90625 ave          10 max           0 min
Histogram: 37 7 5 2 1 2 1 2 1 6
Nghost:        371.188 ave         522 max         249 min
Histogram: 8 5 5 10 12 3 10 4 3 4
Neighs:        99.7188 ave         624 max           0 min
Histogram: 40 8 3 3 0 3 3 1 2 1

Total # of neighbors = 6382
Ave neighs/atom = 52.311475
Ave special neighs/atom = 10.967213
Neighbor list builds = 0
Dangerous builds = 0
#now                 minimize the entire system
minimize             1.0e-4 1.0e-4 500 5000
WARNING: Using 'neigh_modify every 1 delay 0 check yes' setting during minimization (src/min.cpp:187)
PPPM initialization ...
  using 12-bit tables for long-range coulomb (src/kspace.cpp:342)
  G vector (1/distance) = 0.14809026
  grid = 3 3 3
  stencil order = 5
  estimated absolute RMS force accuracy = 0.031780157
  estimated relative force accuracy = 9.5704998e-05
  using double precision FFTW3
  3d grid and FFT values/proc = 216 3
Generated 28 of 28 mixed pair_coeff terms from geometric mixing rule
Per MPI rank memory allocation (min/avg/max) = 30.35 | 30.97 | 32.25 Mbytes
------------ Step            140 ----- CPU =            0 (sec) -------------
TotEng   =     200.667991 KinEng   =       0.000000 Temp     =       0.000000 
PotEng   =     200.667991 E_bond   =      30.659797 E_angle  =     125.049060 
E_dihed  =      28.289355 E_impro  =       0.615390 E_vdwl   =      18.771439 
E_coul   =      23.439599 E_long   =     -26.156648 Press    =     -45.933369
------------ Step            141 ----- CPU =  0.000569607 (sec) -------------
TotEng   =     200.659668 KinEng   =       0.000000 Temp     =       0.000000 
PotEng   =     200.659668 E_bond   =      30.611992 E_angle  =     125.097340 
E_dihed  =      28.283066 E_impro  =       0.616638 E_vdwl   =      18.766712 
E_coul   =      23.440514 E_long   =     -26.156594 Press    =     -51.538704
Loop time of 0.000702937 on 64 procs for 1 steps with 122 atoms

98.6% CPU use with 64 MPI tasks x 1 OpenMP threads

Minimization stats:
  Stopping criterion = energy tolerance
  Energy initial, next-to-last, final = 
      200.667991241887   200.667991241887   200.659668065446
  Force two-norm initial, final = 5.0354014 5.6283239
  Force max component initial, final = 1.1545177 1.7336422
  Final line search alpha, max atom move = 0.086616258 0.1501616
  Iterations, force evaluations = 1 2

MPI task timing breakdown:
Section |  min time  |  avg time  |  max time  |%varavg| %total
---------------------------------------------------------------
Pair    | 2.244e-06  | 9.7713e-06 | 4.4644e-05 |   0.0 |  1.39
Bond    | 6.72e-07   | 2.9035e-06 | 1.2503e-05 |   0.0 |  0.41
Kspace  | 0.00019198 | 0.00023394 | 0.00024803 |   0.0 | 33.28
Neigh   | 0          | 0          | 0          |   0.0 |  0.00
Comm    | 0.00011637 | 0.0001268  | 0.00013861 |   0.0 | 18.04
Output  | 0          | 0          | 0          |   0.0 |  0.00
Modify  | 0          | 0          | 0          |   0.0 |  0.00
Other   |            | 0.0003295  |            |       | 46.88

Nlocal:        1.90625 ave          10 max           0 min
Histogram: 37 7 5 2 1 2 1 2 1 6
Nghost:        371.188 ave         522 max         249 min
Histogram: 8 5 5 10 12 3 10 4 3 4
Neighs:        99.7031 ave         624 max           0 min
Histogram: 40 8 3 3 0 3 3 1 2 1

Total # of neighbors = 6381
Ave neighs/atom = 52.303279
Ave special neighs/atom = 10.967213
Neighbor list builds = 0
Dangerous builds = 0
undump               1

#fix                  freeze oleic_acid setforce 0.0 0.0 0.0
#fix                  1 all gcmc 1 0 100 0 1234567 300.0 0 5 mol 69 full_energy mcmoves 0 1 1
fix                  1 all mc/rotate 1.0
ERROR: Unrecognized fix style 'mc/rotate' (src/modify.cpp:903)
Last command: fix                  1 all mc/rotate 1.0
