ITEM: TIMESTEP
0
ITEM: NUMBER OF ATOMS
122
ITEM: BOX BOUNDS pp pp pp
0.0000000000000000e+00 2.0000000000000000e+01
0.0000000000000000e+00 2.0000000000000000e+01
0.0000000000000000e+00 2.0000000000000000e+01
ITEM: ATOMS id type xu yu zu vx vy vz
121 5 4.53091 0.360004 2.07085 0 0 0
70 2 0.895394 0.867982 4.88954 0 0 0
119 5 4.39584 2.0356 1.73303 0 0 0
114 5 2.454 0.848053 0.822552 0 0 0
88 4 1.58029 0.0990422 4.44272 0 0 0
87 3 4.53605 1.08424 1.27999 0 0 0
84 3 3.47818 0.824899 0.239012 0 0 0
61 6 1.16551 0.534884 9.17286 0 0 0
57 6 2.89897 2.33308 8.87017 0 0 0
56 6 1.86034 3.46873 9.70177 0 0 0
53 6 4.63242 4.13128 8.56748 0 0 0
23 1 2.62526 2.74237 9.83328 0 0 0
21 1 4.35871 4.54057 9.53059 0 0 0
122 6 3.09736 0.514234 5.71792 0 0 0
60 6 0.126888 1.67053 10.0045 0 0 0
59 6 1.91836 2.05611 11.7514 0 0 0
58 6 2.95699 0.920462 10.9198 0 0 0
55 6 3.65182 3.85431 11.4488 0 0 0
54 6 4.69044 2.71866 10.6172 0 0 0
25 1 0.891807 0.944168 10.136 0 0 0
24 1 2.19207 1.64683 10.7883 0 0 0
22 1 3.85659 3.37258 10.4865 0 0 0
110 5 4.43995 1.84587 -1.3866 0 0 0
109 5 3.3303 2.87827 -0.410461 0 0 0
102 5 2.42817 0.650301 -2.36809 0 0 0
101 5 2.41778 2.3918 -2.69534 0 0 0
100 5 0.731527 0.996221 -0.595598 0 0 0
99 5 0.791082 2.74574 -0.851818 0 0 0
76 3 0.931296 1.79437 -1.30486 0 0 0
81 3 3.34583 1.86101 -0.874077 0 0 0
77 3 2.28795 1.60167 -1.91506 0 0 0
52 6 3.59379 5.26693 9.39909 0 0 0
69 1 2.92945 -0.109998 4.96816 0 0 0
118 5 1.40996 -1.88892 3.70855 0 0 0
117 5 2.03889 -0.7668 2.54009 0 0 0
98 5 0.37114 -1.59657 0.896901 0 0 0
86 3 1.33163 -0.931748 3.39599 0 0 0
26 5 0.417992 -0.387105 11.242 0 0 0
115 5 3.56365 -0.184341 -0.153582 0 0 0
120 5 5.50549 1.00321 0.756895 0 0 0
50 6 6.35497 4.44442 10.3153 0 0 0
49 6 6.36587 5.92948 8.2648 0 0 0
48 6 5.32725 7.06513 9.0964 0 0 0
45 6 8.09932 7.72768 7.96211 0 0 0
44 6 7.0607 8.86333 8.79371 0 0 0
42 6 9.82187 8.04082 9.7099 0 0 0
19 1 6.09217 6.33877 9.2279 0 0 0
18 1 7.3235 6.96898 9.88109 0 0 0
17 1 7.82562 8.13697 8.92522 0 0 0
16 1 9.05695 8.76718 9.5784 0 0 0
51 6 5.31634 5.58007 11.1469 0 0 0
47 6 7.04979 7.37827 10.8442 0 0 0
46 6 8.08842 6.24262 10.0126 0 0 0
43 6 8.78325 9.17647 10.5415 0 0 0
20 1 5.59005 5.17078 10.1838 0 0 0
15 5 9.65341 10.119 8.40507 0 0 0
63 6 10.7766 9.35504 10.9594 0 0 0
41 6 11.4478 12.2708 7.87599 0 0 0
40 6 13.3307 13.115 9.03874 0 0 0
14 3 11.0458 10.7373 9.34793 0 0 0
13 3 11.7576 11.8479 8.75639 0 0 0
12 3 12.8511 12.3332 9.41119 0 0 0
65 6 12.9771 14.2949 10.3888 0 0 0
64 6 12.7771 10.2262 12.196 0 0 0
29 3 13.948 14.6161 10.6217 0 0 0
28 3 12.4723 10.6428 11.1744 0 0 0
27 3 11.3789 10.1575 10.5196 0 0 0
11 3 13.179 11.7598 10.7241 0 0 0
10 4 14.9583 11.6028 12.2828 0 0 0
8 3 14.8333 13.642 11.1938 0 0 0
9 3 14.3901 12.2722 11.4527 0 0 0
66 6 13.7388 16.6022 9.95709 0 0 0
36 6 14.4984 18.4975 9.54402 0 0 0
30 3 14.3709 15.8681 10.4383 0 0 0
107 5 -0.180989 0.276294 2.35551 0 0 0
34 6 16.0454 20.1962 9.16831 0 0 0
116 5 -2.96915 2.38546 -3.44428 0 0 0
113 5 -4.00145 0.334775 -4.02655 0 0 0
112 5 -1.76333 2.66306 -1.42464 0 0 0
111 5 -1.72896 1.01074 -0.990291 0 0 0
104 5 -0.00156241 0.633521 -2.93034 0 0 0
103 5 -0.0427042 2.40632 -3.09003 0 0 0
85 4 -2.62625 1.51023 -2.9791 0 0 0
83 4 -3.18616 0.341846 -3.28139 0 0 0
82 3 -1.62312 1.7117 -1.87768 0 0 0
78 3 -0.187729 1.66604 -2.44122 0 0 0
39 6 16.7991 13.2973 11.8471 0 0 0
7 3 16.167 14.0314 11.3659 0 0 0
73 3 -1.72446 -1.5918 0.988788 0 0 0
108 5 -0.80992 -0.845823 3.52397 0 0 0
97 5 -0.211839 -2.79984 2.02928 0 0 0
94 5 -1.81799 -0.584777 0.544764 0 0 0
93 5 -2.54761 -1.68361 1.80975 0 0 0
92 5 -4.22416 -2.65241 0.190923 0 0 0
90 5 -2.05023 -3.61435 0.411594 0 0 0
75 3 -0.351319 -1.71166 1.62134 0 0 0
80 3 -0.087461 -0.730728 2.79953 0 0 0
1 1 17.7182 18.882 9.28851 0 0 0
67 6 17.8098 16.7253 9.39004 0 0 0
2 1 16.33 19.2311 8.79755 0 0 0
3 1 15.452 18.1389 9.2406 0 0 0
37 6 15.376 17.3738 8.42274 0 0 0
35 6 16.3373 19.3494 7.65915 0 0 0
33 6 18.0932 19.6364 9.90515 0 0 0
32 6 18.4338 18.7441 8.47064 0 0 0
68 6 18.2029 17.4728 10.9284 0 0 0
62 7 -0.675479 -0.872436 10.5871 0 0 0
38 6 17.5609 15.6045 11.4153 0 0 0
31 1 17.5485 17.5336 10.0521 0 0 0
4 2 16.1276 17.5094 10.4269 0 0 0
5 3 15.7046 16.2574 10.6103 0 0 0
6 3 16.59 15.2833 11.1825 0 0 0
71 3 -2.0978 -2.68849 -0.0685168 0 0 0
72 3 -3.5169 -2.48747 -0.66498 0 0 0
106 5 -1.79823 -0.932091 -2.25148 0 0 0
105 5 -2.96121 -1.75557 -3.26605 0 0 0
96 5 -4.85888 -1.29468 -1.73098 0 0 0
95 5 -3.74185 -0.390048 -0.680324 0 0 0
91 5 -3.63245 -3.38174 -1.295 0 0 0
89 5 -1.37535 -2.57339 -0.792952 0 0 0
74 3 -3.80266 -1.22645 -1.37079 0 0 0
79 3 -2.9004 -0.919174 -2.57558 0 0 0
ITEM: TIMESTEP
25
ITEM: NUMBER OF ATOMS
122
ITEM: BOX BOUNDS pp pp pp
0.0000000000000000e+00 2.0000000000000000e+01
0.0000000000000000e+00 2.0000000000000000e+01
0.0000000000000000e+00 2.0000000000000000e+01
ITEM: ATOMS id type xu yu zu vx vy vz
84 3 3.92224 1.07649 0.414699 0 0 0
107 5 0.204064 0.092533 2.66372 0 0 0
119 5 4.9373 1.94144 2.18347 0 0 0
114 5 3.15435 1.36421 1.11422 0 0 0
88 4 1.85771 0.142975 4.83239 0 0 0
61 6 1.20853 0.419682 9.32393 0 0 0
57 6 2.91089 2.33826 8.85149 0 0 0
56 6 1.85171 3.5063 9.689 0 0 0
53 6 4.64403 4.12591 8.56342 0 0 0
23 1 2.64819 2.77293 9.81598 0 0 0
21 1 4.3756 4.54834 9.53044 0 0 0
122 6 3.47546 0.771819 5.88645 0 0 0
70 2 1.2009 1.12343 5.2472 0 0 0
69 1 3.13099 0.0759369 5.29107 0 0 0
60 6 0.124645 1.58615 10.1399 0 0 0
59 6 1.94709 2.11823 11.7409 0 0 0
58 6 3.00651 0.959422 10.9091 0 0 0
55 6 3.60784 3.85293 11.415 0 0 0
54 6 4.66376 2.69238 10.5773 0 0 0
25 1 0.979832 0.921262 10.2651 0 0 0
24 1 2.19813 1.67799 10.7766 0 0 0
22 1 3.87626 3.43317 10.4463 0 0 0
110 5 4.48852 1.47025 -1.67332 0 0 0
109 5 4.0455 2.93339 -0.87395 0 0 0
102 5 2.74057 0.988096 -2.64692 0 0 0
101 5 2.8231 2.71506 -2.5832 0 0 0
100 5 0.795479 0.856622 -1.24995 0 0 0
99 5 0.83625 2.58229 -0.792889 0 0 0
76 3 0.929679 1.86685 -1.6129 0 0 0
81 3 3.75215 1.87619 -0.973933 0 0 0
77 3 2.51814 1.84174 -1.98986 0 0 0
52 6 3.58716 5.28829 9.40287 0 0 0
80 3 0.115956 -0.916786 3.08479 0 0 0
118 5 1.27886 -1.78006 4.77951 0 0 0
117 5 2.35811 -1.27861 3.49652 0 0 0
98 5 0.32449 -1.70239 1.05453 0 0 0
86 3 1.42629 -1.0246 4.00376 0 0 0
115 5 3.84717 -0.00254743 0.256569 0 0 0
26 5 0.663952 -0.283112 11.5619 0 0 0
120 5 6.15941 1.23797 1.06421 0 0 0
121 5 5.09865 0.239931 1.97016 0 0 0
87 3 5.12422 1.17729 1.42194 0 0 0
50 6 6.39123 4.46799 10.2884 0 0 0
49 6 6.3527 5.90024 8.26382 0 0 0
48 6 5.29586 7.06014 9.1044 0 0 0
45 6 8.0671 7.69642 7.94016 0 0 0
44 6 7.0061 8.85666 8.7812 0 0 0
42 6 9.79447 8.01856 9.64347 0 0 0
19 1 6.08785 6.32388 9.23125 0 0 0
18 1 7.31302 6.99723 9.84252 0 0 0
17 1 7.79216 8.11349 8.90811 0 0 0
16 1 9.01357 8.77024 9.5391 0 0 0
46 6 8.10761 6.26256 9.97037 0 0 0
51 6 5.33469 5.62813 11.1293 0 0 0
47 6 7.05054 7.42088 10.8114 0 0 0
20 1 5.60129 5.20692 10.1608 0 0 0
43 6 8.72931 9.17729 10.5088 0 0 0
15 5 9.59492 10.0998 8.47737 0 0 0
63 6 10.9851 9.38898 11.0982 0 0 0
41 6 11.4071 12.0264 7.87537 0 0 0
40 6 13.3656 12.8808 8.86658 0 0 0
14 3 10.9895 10.6347 9.37575 0 0 0
13 3 11.7068 11.6544 8.77575 0 0 0
12 3 12.8396 12.1798 9.38192 0 0 0
65 6 12.9047 14.4595 10.6621 0 0 0
64 6 12.8346 10.3127 12.1286 0 0 0
29 3 13.9027 14.6345 10.7627 0 0 0
28 3 12.5599 10.6896 11.2212 0 0 0
27 3 11.4445 10.1433 10.6009 0 0 0
11 3 13.2471 11.746 10.6461 0 0 0
10 4 14.9311 11.5954 12.1678 0 0 0
8 3 14.7689 13.623 11.1682 0 0 0
9 3 14.3335 12.3088 11.3382 0 0 0
36 6 14.4521 18.5462 9.44157 0 0 0
30 3 14.3456 15.9106 10.5077 0 0 0
66 6 13.6409 16.5749 10.2001 0 0 0
96 5 -5.02837 -1.93736 -2.19172 0 0 0
34 6 15.9565 20.2259 9.08611 0 0 0
116 5 -3.52012 2.40957 -3.50987 0 0 0
113 5 -4.03737 0.490439 -4.27209 0 0 0
112 5 -2.1233 3.24043 -2.17675 0 0 0
111 5 -2.23458 1.88899 -1.12454 0 0 0
104 5 -0.313373 1.39648 -3.43578 0 0 0
103 5 -0.262042 3.08156 -3.07079 0 0 0
85 4 -2.95846 1.66554 -3.06988 0 0 0
83 4 -3.44125 0.397526 -3.43592 0 0 0
82 3 -1.89845 2.16629 -2.1357 0 0 0
78 3 -0.352198 2.10055 -2.5984 0 0 0
39 6 16.7348 13.3049 11.8447 0 0 0
7 3 16.0776 13.9903 11.4696 0 0 0
73 3 -1.81397 -1.93017 1.10181 0 0 0
108 5 -0.600297 -0.884762 3.90563 0 0 0
97 5 -0.109354 -2.97999 2.16083 0 0 0
94 5 -1.71829 -1.08637 0.457738 0 0 0
93 5 -2.63239 -1.73878 1.79992 0 0 0
75 3 -0.357884 -1.95014 1.87346 0 0 0
90 5 -2.87481 -3.83862 0.742834 0 0 0
71 3 -2.47853 -3.03895 0.114109 0 0 0
1 1 17.686 18.9564 9.20223 0 0 0
67 6 17.7592 16.8116 9.26811 0 0 0
2 1 16.2988 19.2792 8.67015 0 0 0
3 1 15.4298 18.1398 9.18421 0 0 0
37 6 15.3443 17.3904 8.39508 0 0 0
35 6 16.2927 19.3114 7.57938 0 0 0
33 6 17.9789 19.7502 9.88534 0 0 0
32 6 18.4059 18.8528 8.39069 0 0 0
31 1 17.5203 17.6296 9.94897 0 0 0
68 6 18.1707 17.6041 10.8203 0 0 0
62 7 0.0534746 -1.10547 10.6822 0 0 0
38 6 17.4904 15.4823 11.4811 0 0 0
6 3 16.5223 15.2823 11.2333 0 0 0
4 2 16.1134 17.5734 10.3639 0 0 0
5 3 15.6855 16.2627 10.6782 0 0 0
74 3 -4.11914 -1.55087 -1.72682 0 0 0
72 3 -3.7752 -2.79231 -0.793089 0 0 0
106 5 -2.18828 -1.27043 -2.94222 0 0 0
105 5 -3.62829 -1.54757 -3.81943 0 0 0
79 3 -3.24708 -1.01267 -2.94937 0 0 0
95 5 -4.53551 -0.743276 -1.11653 0 0 0
91 5 -3.81182 -3.72548 -1.36875 0 0 0
89 5 -1.78344 -3.54959 -0.569223 0 0 0
92 5 -4.70806 -2.9395 -0.229691 0 0 0
ITEM: TIMESTEP
50
ITEM: NUMBER OF ATOMS
122
ITEM: BOX BOUNDS pp pp pp
0.0000000000000000e+00 2.0000000000000000e+01
0.0000000000000000e+00 2.0000000000000000e+01
0.0000000000000000e+00 2.0000000000000000e+01
ITEM: ATOMS id type xu yu zu vx vy vz
84 3 3.86491 1.09256 0.370527 0 0 0
107 5 0.248433 0.0500408 2.81981 0 0 0
119 5 5.1034 2.05706 1.94686 0 0 0
114 5 3.14264 1.43555 1.10058 0 0 0
88 4 1.86987 0.00623037 4.90058 0 0 0
61 6 1.36173 0.332104 9.47194 0 0 0
57 6 2.86171 2.21544 8.98242 0 0 0
56 6 1.80876 3.39748 9.79527 0 0 0
53 6 4.55338 4.09581 8.49051 0 0 0
23 1 2.63098 2.69662 9.9316 0 0 0
21 1 4.30026 4.53797 9.454 0 0 0
122 6 3.67358 0.847909 5.40743 0 0 0
70 2 1.20523 0.748881 5.66456 0 0 0
69 1 3.21289 0.16979 4.86427 0 0 0
60 6 0.195038 1.43887 10.2358 0 0 0
59 6 1.91626 2.1151 11.8857 0 0 0
58 6 3.06466 0.971332 11.1562 0 0 0
55 6 3.63978 3.89751 11.4003 0 0 0
54 6 4.68661 2.73466 10.5602 0 0 0
25 1 1.06272 0.801986 10.4089 0 0 0
24 1 2.2233 1.63469 10.9568 0 0 0
22 1 3.86928 3.44433 10.4368 0 0 0
110 5 4.34827 1.33114 -1.75803 0 0 0
109 5 4.02068 2.87498 -1.02903 0 0 0
102 5 2.62409 1.04134 -2.69048 0 0 0
101 5 2.70096 2.77883 -2.51861 0 0 0
100 5 0.718727 0.800702 -1.30465 0 0 0
99 5 0.738304 2.48348 -0.694512 0 0 0
76 3 0.84365 1.84369 -1.57618 0 0 0
81 3 3.67794 1.82767 -1.05059 0 0 0
77 3 2.40844 1.86403 -1.99128 0 0 0
52 6 3.49697 5.26389 9.32626 0 0 0
80 3 0.0594513 -0.948969 3.22764 0 0 0
118 5 1.10793 -1.83378 5.01543 0 0 0
117 5 2.27147 -1.53453 3.70714 0 0 0
98 5 0.322691 -1.97863 1.30464 0 0 0
86 3 1.34191 -1.17483 4.17492 0 0 0
115 5 3.72606 0.0122443 0.258203 0 0 0
26 5 0.659188 -0.472689 11.6113 0 0 0
120 5 6.14775 1.07557 0.860566 0 0 0
121 5 5.05483 0.329921 1.95259 0 0 0
87 3 5.14167 1.18415 1.28435 0 0 0
50 6 6.32565 4.49277 10.1743 0 0 0
49 6 6.32006 5.93929 8.16534 0 0 0
48 6 5.26083 7.10241 9.00514 0 0 0
45 6 8.0649 7.72389 7.93402 0 0 0
44 6 7.04263 8.89195 8.80977 0 0 0
42 6 9.78979 7.9231 9.69994 0 0 0
19 1 6.03787 6.34937 9.13488 0 0 0
18 1 7.26293 6.98595 9.79773 0 0 0
17 1 7.79866 8.11365 8.91649 0 0 0
16 1 9.04284 8.70718 9.57484 0 0 0
46 6 8.03708 6.2299 9.92982 0 0 0
51 6 5.27269 5.65172 11.0155 0 0 0
47 6 6.98259 7.39115 10.7702 0 0 0
20 1 5.53351 5.22969 10.0458 0 0 0
43 6 8.76418 9.13415 10.5387 0 0 0
15 5 9.68587 9.98816 8.49196 0 0 0
63 6 11.0616 9.33739 11.1266 0 0 0
41 6 11.4614 11.9049 7.8543 0 0 0
40 6 13.346 12.91 8.88227 0 0 0
14 3 11.0606 10.5562 9.39125 0 0 0
13 3 11.7593 11.5848 8.77451 0 0 0
12 3 12.8447 12.1801 9.38836 0 0 0
65 6 12.8372 14.5339 10.7177 0 0 0
64 6 12.9262 10.3197 12.1391 0 0 0
29 3 13.8341 14.7249 10.8036 0 0 0
28 3 12.6209 10.6815 11.2352 0 0 0
27 3 11.5163 10.0958 10.6285 0 0 0
11 3 13.2644 11.7674 10.6506 0 0 0
10 4 15.0098 11.6662 12.0897 0 0 0
8 3 14.7262 13.7112 11.1465 0 0 0
9 3 14.34 12.3745 11.3084 0 0 0
36 6 14.4225 18.5899 9.34243 0 0 0
30 3 14.2678 16.0278 10.6033 0 0 0
66 6 13.5592 16.7259 10.382 0 0 0
96 5 -4.81897 -2.02322 -2.36044 0 0 0
34 6 15.9392 20.2755 8.94821 0 0 0
116 5 -3.52351 2.32648 -3.65868 0 0 0
113 5 -3.88428 0.348792 -4.40784 0 0 0
112 5 -2.25522 3.22377 -2.18743 0 0 0
111 5 -2.32958 1.89124 -1.1502 0 0 0
104 5 -0.335531 1.76922 -3.51677 0 0 0
103 5 -0.382106 3.31249 -2.7019 0 0 0
85 4 -2.94609 1.62849 -3.15872 0 0 0
83 4 -3.31823 0.321564 -3.54472 0 0 0
82 3 -1.9796 2.16708 -2.15237 0 0 0
78 3 -0.422061 2.23247 -2.52922 0 0 0
39 6 16.721 13.3868 11.7197 0 0 0
7 3 16.0402 14.075 11.4002 0 0 0
73 3 -1.80112 -1.78496 1.10319 0 0 0
108 5 -0.703483 -0.88166 4.01044 0 0 0
97 5 -0.505163 -2.95358 2.53564 0 0 0
94 5 -1.41741 -1.12253 0.355502 0 0 0
93 5 -2.61644 -1.23437 1.58559 0 0 0
75 3 -0.47499 -1.96967 2.05672 0 0 0
90 5 -3.09075 -3.60778 0.897607 0 0 0
71 3 -2.52506 -2.94708 0.226196 0 0 0
1 1 17.6675 19.0205 9.20812 0 0 0
67 6 17.6698 16.8861 9.23698 0 0 0
2 1 16.3 19.3072 8.6034 0 0 0
3 1 15.4117 18.1837 9.13813 0 0 0
37 6 15.3511 17.3954 8.38647 0 0 0
35 6 16.338 19.2791 7.5132 0 0 0
33 6 17.9276 19.8057 9.91545 0 0 0
32 6 18.4294 18.9246 8.43421 0 0 0
31 1 17.4712 17.6968 9.94006 0 0 0
68 6 18.1539 17.6485 10.7875 0 0 0
62 7 0.611808 -1.43208 10.6473 0 0 0
38 6 17.4555 15.5566 11.3843 0 0 0
6 3 16.4787 15.3729 11.1801 0 0 0
4 2 16.0609 17.6701 10.3608 0 0 0
5 3 15.6162 16.3665 10.6965 0 0 0
74 3 -3.96689 -1.58239 -1.83715 0 0 0
72 3 -3.67091 -2.76952 -0.837868 0 0 0
106 5 -1.95118 -1.13562 -2.82501 0 0 0
105 5 -3.17928 -1.64432 -3.87598 0 0 0
79 3 -3.01445 -1.03264 -2.98874 0 0 0
95 5 -4.42613 -0.767619 -1.27402 0 0 0
91 5 -3.60845 -3.71358 -1.39435 0 0 0
89 5 -1.85237 -3.58977 -0.35736 0 0 0
92 5 -4.63121 -2.91699 -0.332337 0 0 0
ITEM: TIMESTEP
75
ITEM: NUMBER OF ATOMS
122
ITEM: BOX BOUNDS pp pp pp
0.0000000000000000e+00 2.0000000000000000e+01
0.0000000000000000e+00 2.0000000000000000e+01
0.0000000000000000e+00 2.0000000000000000e+01
ITEM: ATOMS id type xu yu zu vx vy vz
84 3 3.81232 1.05939 0.303604 0 0 0
121 5 4.96243 0.232686 1.86317 0 0 0
114 5 3.12992 1.44616 1.05388 0 0 0
122 6 3.34044 1.24006 4.9804 0 0 0
69 1 2.98187 0.423982 4.57347 0 0 0
61 6 1.44771 0.22182 9.51594 0 0 0
57 6 2.85216 2.16872 9.01311 0 0 0
56 6 1.77217 3.34367 9.80428 0 0 0
53 6 4.5038 4.0551 8.52221 0 0 0
23 1 2.60271 2.65365 9.95722 0 0 0
21 1 4.26006 4.50727 9.48337 0 0 0
70 2 1.22199 0.496314 5.93596 0 0 0
60 6 0.194503 1.2278 10.2872 0 0 0
59 6 1.84195 2.08586 11.8991 0 0 0
58 6 3.07507 0.98724 11.244 0 0 0
55 6 3.58225 3.87642 11.4293 0 0 0
54 6 4.65016 2.71668 10.609 0 0 0
25 1 1.11734 0.671177 10.452 0 0 0
24 1 2.20595 1.59617 10.9951 0 0 0
22 1 3.82588 3.41693 10.4717 0 0 0
110 5 4.30053 1.37622 -1.83675 0 0 0
109 5 3.96463 2.87791 -1.04233 0 0 0
102 5 2.50789 1.00528 -2.70634 0 0 0
101 5 2.6708 2.74013 -2.63746 0 0 0
100 5 0.655778 0.891654 -1.30768 0 0 0
99 5 0.726989 2.58182 -0.725985 0 0 0
76 3 0.802914 1.92469 -1.59594 0 0 0
81 3 3.62779 1.83104 -1.10165 0 0 0
77 3 2.3552 1.87241 -2.04532 0 0 0
52 6 3.45277 5.22801 9.3554 0 0 0
80 3 0.0530038 -1.04157 3.35769 0 0 0
88 4 1.78752 -0.0713406 4.97429 0 0 0
117 5 2.2014 -1.77275 3.98656 0 0 0
98 5 0.365411 -1.92761 1.39931 0 0 0
86 3 1.27368 -1.31332 4.36109 0 0 0
115 5 3.60726 -0.00942757 0.204636 0 0 0
107 5 0.278757 -0.0463705 2.96155 0 0 0
118 5 0.941654 -1.89141 5.23206 0 0 0
26 5 0.846669 -0.630535 11.6646 0 0 0
62 7 0.624404 -1.55365 10.6919 0 0 0
120 5 6.08934 0.826604 0.711217 0 0 0
87 3 5.12128 1.0572 1.17337 0 0 0
119 5 5.21159 1.94391 1.81197 0 0 0
50 6 6.29554 4.47994 10.1747 0 0 0
49 6 6.25233 5.90841 8.14984 0 0 0
48 6 5.20593 7.07661 8.99643 0 0 0
45 6 8.05721 7.69744 7.90714 0 0 0
44 6 7.0558 8.88527 8.77588 0 0 0
42 6 9.75653 7.85284 9.7412 0 0 0
19 1 5.98898 6.32832 9.12084 0 0 0
18 1 7.22491 6.97007 9.76188 0 0 0
17 1 7.79509 8.09187 8.88903 0 0 0
16 1 9.05222 8.66342 9.5528 0 0 0
46 6 7.98855 6.20459 9.89893 0 0 0
15 5 9.79076 9.85536 8.42343 0 0 0
51 6 5.2505 5.64111 11.0194 0 0 0
47 6 6.95269 7.38278 10.7334 0 0 0
20 1 5.49716 5.21108 10.0491 0 0 0
43 6 8.77486 9.1522 10.4873 0 0 0
63 6 11.1806 9.23378 11.0392 0 0 0
41 6 11.4023 11.9676 7.8915 0 0 0
40 6 13.2374 13.0177 8.93471 0 0 0
14 3 11.0989 10.5199 9.3619 0 0 0
13 3 11.723 11.6214 8.79513 0 0 0
12 3 12.7834 12.2502 9.42619 0 0 0
65 6 12.8607 14.5998 10.7338 0 0 0
64 6 12.9604 10.3148 12.1151 0 0 0
29 3 13.861 14.7781 10.8042 0 0 0
28 3 12.6429 10.6872 11.2198 0 0 0
27 3 11.5813 10.0481 10.5832 0 0 0
11 3 13.2438 11.8173 10.6704 0 0 0
10 4 14.9724 11.7296 12.1371 0 0 0
8 3 14.7384 13.7561 11.1572 0 0 0
9 3 14.3198 12.4309 11.3345 0 0 0
36 6 14.4449 18.6335 9.31889 0 0 0
30 3 14.3072 16.0676 10.5735 0 0 0
66 6 13.6044 16.7641 10.3376 0 0 0
34 6 15.9062 20.3118 8.83584 0 0 0
116 5 -3.5661 2.24497 -3.6465 0 0 0
113 5 -3.5824 0.24718 -4.55013 0 0 0
112 5 -2.34803 3.2195 -2.21459 0 0 0
111 5 -2.3626 1.93218 -1.14248 0 0 0
104 5 -0.365376 2.02224 -3.55561 0 0 0
103 5 -0.441464 3.45249 -2.5521 0 0 0
85 4 -2.92179 1.58183 -3.17795 0 0 0
83 4 -3.13149 0.263563 -3.62078 0 0 0
82 3 -2.01478 2.18316 -2.15448 0 0 0
78 3 -0.462548 2.35818 -2.51594 0 0 0
39 6 16.7329 13.4202 11.7287 0 0 0
7 3 16.0624 14.1135 11.3954 0 0 0
73 3 -1.75647 -1.7675 1.1636 0 0 0
108 5 -0.734529 -0.947587 4.11265 0 0 0
97 5 -0.433122 -3.02598 2.54136 0 0 0
94 5 -1.35724 -1.11784 0.410513 0 0 0
93 5 -2.56578 -1.19614 1.63445 0 0 0
75 3 -0.447823 -2.00569 2.13436 0 0 0
90 5 -3.12098 -3.50887 0.96935 0 0 0
71 3 -2.51294 -2.90136 0.288443 0 0 0
1 1 17.6669 19.1268 9.21317 0 0 0
67 6 17.7924 16.9964 9.30311 0 0 0
2 1 16.3108 19.3398 8.55233 0 0 0
3 1 15.4307 18.2205 9.10501 0 0 0
37 6 15.3574 17.4286 8.35882 0 0 0
35 6 16.3873 19.2602 7.46826 0 0 0
33 6 17.8673 19.9383 9.91143 0 0 0
32 6 18.4591 19.0562 8.46782 0 0 0
31 1 17.507 17.8103 9.97136 0 0 0
68 6 18.1373 17.8207 10.8597 0 0 0
5 3 15.6588 16.402 10.6617 0 0 0
38 6 17.5003 15.5858 11.3268 0 0 0
6 3 16.5155 15.4033 11.1437 0 0 0
4 2 16.0823 17.7142 10.3283 0 0 0
74 3 -3.82557 -1.55705 -1.87997 0 0 0
72 3 -3.6123 -2.70166 -0.820265 0 0 0
106 5 -1.76274 -1.15796 -2.81773 0 0 0
105 5 -2.97782 -1.71871 -3.88532 0 0 0
79 3 -2.82592 -1.06925 -3.02046 0 0 0
95 5 -4.30441 -0.725148 -1.366 0 0 0
91 5 -3.58865 -3.66913 -1.33251 0 0 0
89 5 -1.85155 -3.58397 -0.264065 0 0 0
92 5 -4.59508 -2.75671 -0.335721 0 0 0
96 5 -4.65504 -2.00853 -2.42904 0 0 0
ITEM: TIMESTEP
100
ITEM: NUMBER OF ATOMS
122
ITEM: BOX BOUNDS pp pp pp
0.0000000000000000e+00 2.0000000000000000e+01
0.0000000000000000e+00 2.0000000000000000e+01
0.0000000000000000e+00 2.0000000000000000e+01
ITEM: ATOMS id type xu yu zu vx vy vz
84 3 3.76448 0.89657 0.210996 0 0 0
121 5 4.86156 -0.0533473 1.75353 0 0 0
114 5 3.10009 1.27296 0.986405 0 0 0
122 6 2.96478 1.57878 5.17329 0 0 0
69 1 2.68409 0.774313 4.6888 0 0 0
61 6 1.65549 0.0926049 9.47811 0 0 0
57 6 2.91441 2.11934 9.03635 0 0 0
56 6 1.743 3.23589 9.78067 0 0 0
53 6 4.47456 4.06539 8.59244 0 0 0
23 1 2.60474 2.59428 9.96717 0 0 0
21 1 4.22694 4.51186 9.55587 0 0 0
70 2 1.03915 0.435043 6.1605 0 0 0
60 6 0.293351 0.952554 10.2454 0 0 0
59 6 1.76403 1.99254 11.8632 0 0 0
58 6 3.13082 0.996743 11.3229 0 0 0
55 6 3.45458 3.88131 11.4657 0 0 0
54 6 4.6065 2.75145 10.724 0 0 0
25 1 1.26692 0.493704 10.415 0 0 0
24 1 2.23366 1.52324 10.9981 0 0 0
22 1 3.76899 3.42079 10.5291 0 0 0
110 5 4.25745 1.29895 -1.91038 0 0 0
109 5 4.03084 2.77724 -1.03314 0 0 0
102 5 2.5235 1.14449 -2.83048 0 0 0
101 5 2.7035 2.86455 -2.56454 0 0 0
100 5 0.618637 0.9837 -1.34335 0 0 0
99 5 0.750016 2.68065 -0.792555 0 0 0
76 3 0.805468 2.00549 -1.65172 0 0 0
81 3 3.62577 1.76001 -1.14459 0 0 0
77 3 2.36438 1.93965 -2.08648 0 0 0
52 6 3.43014 5.24439 9.42481 0 0 0
80 3 -0.078597 -1.0706 3.52815 0 0 0
88 4 1.61032 0.0638821 5.10468 0 0 0
117 5 2.22092 -1.41742 3.91498 0 0 0
98 5 0.306883 -1.6637 1.45084 0 0 0
86 3 1.26227 -1.18389 4.4 0 0 0
115 5 3.50373 -0.151673 0.0388201 0 0 0
107 5 -0.137348 0.004167 3.31637 0 0 0
118 5 1.13197 -1.90944 5.21338 0 0 0
26 5 1.11975 -0.835001 11.6159 0 0 0
62 7 0.306543 -1.53485 10.7877 0 0 0
120 5 6.01177 0.450718 0.576077 0 0 0
87 3 5.07835 0.760318 1.06597 0 0 0
119 5 5.27157 1.61966 1.71942 0 0 0
50 6 6.26045 4.45607 10.2616 0 0 0
49 6 6.21734 5.88644 8.23089 0 0 0
48 6 5.20804 7.07189 9.09522 0 0 0
45 6 8.11279 7.55573 7.93707 0 0 0
44 6 7.08876 8.79232 8.70323 0 0 0
42 6 9.7568 7.83312 9.80778 0 0 0
19 1 5.97996 6.31005 9.20731 0 0 0
18 1 7.24172 6.94178 9.81253 0 0 0
17 1 7.82913 8.01288 8.88544 0 0 0
16 1 9.07331 8.63504 9.53125 0 0 0
46 6 7.98804 6.16288 9.96987 0 0 0
15 5 9.86968 9.72402 8.33534 0 0 0
51 6 5.22516 5.62769 11.1057 0 0 0
47 6 6.99138 7.39748 10.7707 0 0 0
20 1 5.47269 5.1991 10.1343 0 0 0
43 6 8.77898 9.20293 10.4147 0 0 0
63 6 11.3591 9.10783 10.8722 0 0 0
41 6 11.2548 12.0472 7.90843 0 0 0
40 6 13.0273 13.1749 8.96644 0 0 0
14 3 11.1179 10.4836 9.28586 0 0 0
13 3 11.6269 11.6713 8.78119 0 0 0
12 3 12.6528 12.3479 9.4255 0 0 0
65 6 12.8025 14.7187 10.7608 0 0 0
64 6 13.0531 10.2709 11.9821 0 0 0
29 3 13.8072 14.877 10.8042 0 0 0
28 3 12.6873 10.6744 11.1197 0 0 0
27 3 11.6714 9.98434 10.4657 0 0 0
11 3 13.1905 11.8782 10.6268 0 0 0
10 4 14.9293 11.8041 12.0771 0 0 0
8 3 14.6768 13.8368 11.1229 0 0 0
9 3 14.257 12.5067 11.2906 0 0 0
36 6 14.4931 18.6054 9.0759 0 0 0
30 3 14.2731 16.1619 10.569 0 0 0
66 6 13.5883 16.8819 10.3498 0 0 0
34 6 15.9459 20.3335 8.69825 0 0 0
116 5 -3.55051 2.20018 -3.73803 0 0 0
113 5 -3.53903 0.193469 -4.5474 0 0 0
112 5 -2.34015 3.28464 -2.4168 0 0 0
111 5 -2.36552 2.09463 -1.23686 0 0 0
104 5 -0.335163 2.14964 -3.64108 0 0 0
103 5 -0.42203 3.55116 -2.61439 0 0 0
85 4 -2.88751 1.57986 -3.24204 0 0 0
83 4 -3.07969 0.241253 -3.62333 0 0 0
82 3 -1.99605 2.26253 -2.25787 0 0 0
78 3 -0.440374 2.45796 -2.59219 0 0 0
39 6 16.6825 13.4613 11.6353 0 0 0
7 3 16.0109 14.1668 11.3291 0 0 0
73 3 -1.78359 -1.82081 1.25541 0 0 0
108 5 -0.800439 -1.29906 4.32194 0 0 0
97 5 -0.259549 -2.99114 2.48378 0 0 0
94 5 -1.49341 -1.02372 0.58948 0 0 0
93 5 -2.65557 -1.45606 1.8111 0 0 0
75 3 -0.44639 -1.9495 2.19374 0 0 0
90 5 -2.87867 -3.72779 0.853497 0 0 0
71 3 -2.38114 -2.95597 0.253882 0 0 0
1 1 17.6848 19.2374 9.34052 0 0 0
67 6 17.8786 17.1218 9.43727 0 0 0
2 1 16.416 19.3683 8.50538 0 0 0
3 1 15.512 18.2279 8.98178 0 0 0
37 6 15.5455 17.4158 8.25484 0 0 0
35 6 16.6369 19.2595 7.4437 0 0 0
33 6 17.7488 20.0579 10.0551 0 0 0
32 6 18.5698 19.2081 8.70502 0 0 0
31 1 17.4954 17.9156 10.0795 0 0 0
68 6 18.0169 17.9345 11.0361 0 0 0
5 3 15.6315 16.4664 10.6257 0 0 0
38 6 17.4773 15.6057 11.2376 0 0 0
6 3 16.4838 15.4497 11.0777 0 0 0
4 2 16.0472 17.7755 10.2799 0 0 0
74 3 -3.74391 -1.57342 -1.84941 0 0 0
72 3 -3.52292 -2.75363 -0.82082 0 0 0
106 5 -1.69211 -1.09224 -2.74018 0 0 0
105 5 -2.83601 -1.73747 -3.8473 0 0 0
79 3 -2.74532 -1.06962 -2.98687 0 0 0
95 5 -4.18919 -0.737827 -1.31398 0 0 0
91 5 -3.48087 -3.70551 -1.36053 0 0 0
89 5 -1.64174 -3.49159 -0.357767 0 0 0
92 5 -4.51085 -2.85582 -0.350763 0 0 0
96 5 -4.59875 -1.9896 -2.38231 0 0 0
ITEM: TIMESTEP
125
ITEM: NUMBER OF ATOMS
122
ITEM: BOX BOUNDS pp pp pp
0.0000000000000000e+00 2.0000000000000000e+01
0.0000000000000000e+00 2.0000000000000000e+01
0.0000000000000000e+00 2.0000000000000000e+01
ITEM: ATOMS id type xu yu zu vx vy vz
84 3 3.70458 0.753518 0.179497 0 0 0
87 3 4.99504 0.566225 1.05388 0 0 0
114 5 3.02494 1.09814 0.955722 0 0 0
69 1 2.46659 1.03364 4.82299 0 0 0
61 6 1.82174 -0.00869262 9.52235 0 0 0
57 6 3.04849 2.07636 9.09446 0 0 0
56 6 1.79723 3.14501 9.77389 0 0 0
53 6 4.48491 4.07594 8.65484 0 0 0
23 1 2.67837 2.54682 10.0053 0 0 0
21 1 4.22757 4.52815 9.61254 0 0 0
70 2 0.949039 0.361535 6.31862 0 0 0
122 6 2.6615 1.82851 5.36551 0 0 0
88 4 1.50917 0.157451 5.21669 0 0 0
60 6 0.418321 0.901544 10.1363 0 0 0
59 6 1.8224 1.92219 11.8879 0 0 0
58 6 3.20811 0.945419 11.3575 0 0 0
55 6 3.40191 3.91528 11.5046 0 0 0
54 6 4.63306 2.81733 10.8481 0 0 0
25 1 1.36207 0.429025 10.4084 0 0 0
24 1 2.30718 1.46195 11.0267 0 0 0
22 1 3.77582 3.44081 10.5972 0 0 0
110 5 4.25827 1.26283 -1.90449 0 0 0
109 5 3.98444 2.69048 -0.96881 0 0 0
102 5 2.51428 1.13149 -2.86548 0 0 0
101 5 2.69176 2.83739 -2.53789 0 0 0
100 5 0.600318 0.915801 -1.42558 0 0 0
99 5 0.717508 2.56867 -0.776923 0 0 0
76 3 0.786696 1.94874 -1.67434 0 0 0
81 3 3.59517 1.6773 -1.13914 0 0 0
77 3 2.3488 1.89602 -2.09309 0 0 0
52 6 3.42562 5.25282 9.47042 0 0 0
121 5 4.72537 -0.226374 1.74549 0 0 0
86 3 1.26484 -1.0755 4.44146 0 0 0
117 5 2.24173 -1.24124 3.97043 0 0 0
98 5 0.349442 -1.43638 1.44425 0 0 0
118 5 1.15875 -1.83424 5.22455 0 0 0
26 5 1.06338 -0.875495 11.6111 0 0 0
62 7 0.560287 -1.70074 10.6553 0 0 0
115 5 3.45229 -0.285328 -0.0486873 0 0 0
120 5 5.90697 0.192111 0.575108 0 0 0
119 5 5.23636 1.41584 1.70328 0 0 0
50 6 6.25278 4.49226 10.3396 0 0 0
49 6 6.22494 5.88831 8.28444 0 0 0
48 6 5.22032 7.09303 9.12822 0 0 0
45 6 8.1322 7.48133 7.97861 0 0 0
44 6 7.1296 8.76123 8.70199 0 0 0
42 6 9.77038 7.78046 9.84469 0 0 0
19 1 5.98158 6.32331 9.25379 0 0 0
18 1 7.24314 6.94312 9.8667 0 0 0
17 1 7.85135 7.97183 8.91058 0 0 0
16 1 9.10326 8.58605 9.54025 0 0 0
15 5 9.90066 9.6046 8.28825 0 0 0
51 6 5.20601 5.67493 11.1529 0 0 0
47 6 6.98812 7.43059 10.8076 0 0 0
20 1 5.46354 5.22909 10.1923 0 0 0
43 6 8.82238 9.19405 10.4008 0 0 0
46 6 7.97444 6.1571 10.0543 0 0 0
63 6 11.4636 9.02279 10.7751 0 0 0
27 3 11.7111 9.92993 10.3882 0 0 0
41 6 11.091 12.0323 7.90791 0 0 0
40 6 12.8231 13.243 8.95207 0 0 0
14 3 11.1041 10.4262 9.23666 0 0 0
13 3 11.5156 11.6601 8.75724 0 0 0
12 3 12.5165 12.3803 9.39279 0 0 0
65 6 12.7265 14.7907 10.7011 0 0 0
64 6 13.109 10.2541 11.8754 0 0 0
29 3 13.7333 14.9411 10.7455 0 0 0
28 3 12.6993 10.6607 11.0344 0 0 0
9 3 14.193 12.5522 11.1952 0 0 0
11 3 13.1249 11.9027 10.5565 0 0 0
10 4 14.9022 11.8474 11.9471 0 0 0
8 3 14.5984 13.8886 11.0413 0 0 0
36 6 14.5529 18.4715 8.83707 0 0 0
30 3 14.2126 16.229 10.5392 0 0 0
66 6 13.538 16.966 10.3373 0 0 0
107 5 -0.22613 0.0547332 3.42049 0 0 0
34 6 15.922 20.2958 8.56138 0 0 0
33 6 17.5471 20.1907 10.1594 0 0 0
116 5 -3.55464 2.22527 -3.76627 0 0 0
113 5 -3.58009 0.208663 -4.5606 0 0 0
112 5 -2.34203 3.29577 -2.40891 0 0 0
111 5 -2.38877 2.07331 -1.25778 0 0 0
104 5 -0.345517 2.16913 -3.65223 0 0 0
103 5 -0.422192 3.54328 -2.5838 0 0 0
85 4 -2.90112 1.5977 -3.26726 0 0 0
83 4 -3.0936 0.257287 -3.65121 0 0 0
82 3 -2.01123 2.26581 -2.27228 0 0 0
78 3 -0.453067 2.44885 -2.59665 0 0 0
39 6 16.6111 13.4902 11.5134 0 0 0
7 3 15.939 14.2066 11.2393 0 0 0
73 3 -1.72705 -1.75577 1.25081 0 0 0
108 5 -0.759853 -1.37596 4.33329 0 0 0
97 5 -0.0759892 -2.87031 2.38494 0 0 0
94 5 -1.51571 -0.908882 0.612892 0 0 0
93 5 -2.61606 -1.47633 1.82696 0 0 0
75 3 -0.365636 -1.8343 2.16955 0 0 0
90 5 -2.7474 -3.66877 0.847273 0 0 0
71 3 -2.26856 -2.89852 0.232379 0 0 0
80 3 -0.0698924 -1.02143 3.5591 0 0 0
1 1 17.6364 19.3526 9.46885 0 0 0
67 6 17.9393 17.2611 9.61336 0 0 0
2 1 16.477 19.3614 8.47746 0 0 0
3 1 15.6002 18.1774 8.89511 0 0 0
37 6 15.7903 17.3363 8.22723 0 0 0
35 6 16.8376 19.2227 7.45792 0 0 0
32 6 18.5939 19.3796 8.9483 0 0 0
68 6 17.8973 18.0895 11.2076 0 0 0
5 3 15.5745 16.5195 10.6028 0 0 0
38 6 17.4166 15.6326 11.1827 0 0 0
6 3 16.4215 15.4897 11.024 0 0 0
4 2 16 17.8266 10.2681 0 0 0
31 1 17.4562 18.0334 10.2126 0 0 0
74 3 -3.6983 -1.61142 -1.89952 0 0 0
72 3 -3.42012 -2.75575 -0.845551 0 0 0
106 5 -1.67199 -1.05232 -2.77255 0 0 0
105 5 -2.78017 -1.71349 -3.89048 0 0 0
79 3 -2.72081 -1.04997 -3.02493 0 0 0
95 5 -4.21751 -0.802772 -1.38179 0 0 0
91 5 -3.33893 -3.71075 -1.37562 0 0 0
89 5 -1.50788 -3.41368 -0.372239 0 0 0
92 5 -4.40381 -2.89312 -0.378383 0 0 0
96 5 -4.49589 -2.11217 -2.45454 0 0 0
ITEM: TIMESTEP
139
ITEM: NUMBER OF ATOMS
122
ITEM: BOX BOUNDS pp pp pp
0.0000000000000000e+00 2.0000000000000000e+01
0.0000000000000000e+00 2.0000000000000000e+01
0.0000000000000000e+00 2.0000000000000000e+01
ITEM: ATOMS id type xu yu zu vx vy vz
84 3 3.71831 0.718268 0.175124 0 0 0
87 3 5.01149 0.508553 1.04184 0 0 0
114 5 3.04856 1.06718 0.958137 0 0 0
69 1 2.37775 1.07711 4.86535 0 0 0
61 6 1.89883 -0.0388565 9.51847 0 0 0
57 6 3.11319 2.06282 9.11979 0 0 0
56 6 1.83362 3.1166 9.77019 0 0 0
53 6 4.51162 4.04577 8.70567 0 0 0
23 1 2.71459 2.52577 10.0226 0 0 0
21 1 4.23643 4.50817 9.65377 0 0 0
70 2 0.879242 0.364855 6.36612 0 0 0
122 6 2.56077 1.87438 5.40502 0 0 0
88 4 1.43707 0.185262 5.25809 0 0 0
60 6 0.482239 0.890856 10.0687 0 0 0
59 6 1.83629 1.88489 11.8886 0 0 0
58 6 3.23529 0.919697 11.3684 0 0 0
55 6 3.37883 3.90722 11.5365 0 0 0
54 6 4.64101 2.8176 10.922 0 0 0
25 1 1.40678 0.407234 10.3826 0 0 0
24 1 2.33602 1.43466 11.0307 0 0 0
22 1 3.78322 3.42962 10.6438 0 0 0
110 5 4.26658 1.2656 -1.90418 0 0 0
109 5 3.9847 2.67191 -0.940626 0 0 0
102 5 2.49515 1.09662 -2.84784 0 0 0
101 5 2.6865 2.80495 -2.54496 0 0 0
100 5 0.597743 0.901844 -1.41551 0 0 0
99 5 0.719125 2.55207 -0.754486 0 0 0
76 3 0.784424 1.93476 -1.6551 0 0 0
81 3 3.59951 1.66031 -1.13151 0 0 0
77 3 2.34488 1.8721 -2.08178 0 0 0
52 6 3.42528 5.21872 9.49117 0 0 0
121 5 4.75232 -0.325555 1.69025 0 0 0
86 3 1.20844 -1.03997 4.47049 0 0 0
117 5 2.19993 -1.18857 4.0222 0 0 0
98 5 0.362708 -1.38204 1.45307 0 0 0
118 5 1.08473 -1.80986 5.24202 0 0 0
26 5 1.04588 -0.883405 11.5825 0 0 0
62 7 0.558516 -1.70872 10.6184 0 0 0
115 5 3.45903 -0.316585 -0.0572182 0 0 0
120 5 5.93698 0.181015 0.552794 0 0 0
119 5 5.22649 1.3328 1.72961 0 0 0
50 6 6.24743 4.50186 10.4107 0 0 0
49 6 6.21395 5.85817 8.3264 0 0 0
48 6 5.20041 7.07161 9.14569 0 0 0
45 6 8.09492 7.46184 7.97926 0 0 0
44 6 7.1188 8.75973 8.70605 0 0 0
42 6 9.76253 7.76262 9.83318 0 0 0
19 1 5.96881 6.31131 9.28696 0 0 0
18 1 7.22568 6.95229 9.88642 0 0 0
17 1 7.83615 7.9649 8.91103 0 0 0
16 1 9.10449 8.57116 9.5176 0 0 0
15 5 9.92003 9.56029 8.25221 0 0 0
51 6 5.17641 5.68623 11.1916 0 0 0
47 6 6.96666 7.4593 10.8158 0 0 0
20 1 5.45347 5.22929 10.2416 0 0 0