Created by /home/rramji/scripts/createLammpsInput.pl on Tue Aug 15 17:19:29 2023

        1280 atoms
         832 bonds
        1584 angles
        2224 dihedrals
           0 impropers

           5 atom types
           3 bond types
           1 angle types
           3 dihedral types
           0 improper types

		   0.000000  45.735666 xlo xhi
		   0.000000  32.339999 ylo yhi
		   0.000000   39.05653 zlo zhi

Masses

    1 6.5377E+01 # Zn     
    2 3.2060E+01 # S_3    
    3 1.5999E+01 # O_2    
    4 1.2011E+01 # C_3    
    5 1.0080E+00 # H_     

Pair Coeffs

    1    0.05500    4.04468 # Zn Zn 
    2    0.34400    3.59032 # S_3 S_3 
    3    0.09570    3.03315 # O_2 O_2 
    4    0.09510    3.47299 # C_3 C_3 
    5    0.01520    2.84642 # H_ H_ 

Bond Coeffs

    1      350     1.32 # O_2 C_3 
    2      350     1.53 # C_3 C_3 
    3      350     1.09 # C_3 H_ 

Angle Coeffs

    1       50  109.471 # X C_3 X 

Dihedral Coeffs

    1 0.111111        1        3 # X C_3 C_3 X 
    2 0.166667        1        3 # X C_3 C_3 X 
    3     0.25        1        3 # X C_3 C_3 X 

Atoms

       1        1        1  2.00000000    0.00000    0.00000    0.00000    0    0    0
       2        2        2  0.00000000    1.90565    1.34750    0.00000    0    0    0
       3        3        1  2.00000000    3.81131    0.00000    3.81131    0    0    0
       4        4        2  0.00000000    5.71696    1.34750    3.81131    0    0    0
       5        5        1  2.00000000    7.62261    0.00000    7.62261    0    0    0
       6        6        2  0.00000000    1.90565    1.34750    7.62261    0    0    0
       7        7        1  2.00000000    3.81131    0.00000   11.43392    0    0    0
       8        8        2  0.00000000    5.71696    1.34750   11.43392    0    0    0
       9        9        1  2.00000000    7.62261    0.00000   15.24522    0    0    0
      10       10        2  0.00000000    1.90565    1.34750   15.24522    0    0    0
      11       11        1  2.00000000    3.81131    0.00000   19.05653    0    0    0
      12       12        2  0.00000000    5.71696    1.34750   19.05653    0    0    0
      13       13        1  2.00000000    0.00000    5.39000    0.00000    0    0    0
      14       14        2  0.00000000    1.90565    6.73750    0.00000    0    0    0
      15       15        1  2.00000000    3.81131    5.39000    3.81131    0    0    0
      16       16        2  0.00000000    5.71696    6.73750    3.81131    0    0    0
      17       17        1  2.00000000    7.62261    5.39000    7.62261    0    0    0
      18       18        2  0.00000000    1.90565    6.73750    7.62261    0    0    0
      19       19        1  2.00000000    3.81131    5.39000   11.43392    0    0    0
      20       20        2  0.00000000    5.71696    6.73750   11.43392    0    0    0
      21       21        1  2.00000000    7.62261    5.39000   15.24522    0    0    0
      22       22        2  0.00000000    1.90565    6.73750   15.24522    0    0    0
      23       23        1  2.00000000    3.81131    5.39000   19.05653    0    0    0
      24       24        2  0.00000000    5.71696    6.73750   19.05653    0    0    0
      25       25        1  2.00000000    0.00000   10.78000    0.00000    0    0    0
      26       26        2  0.00000000    1.90565   12.12750    0.00000    0    0    0
      27       27        1  2.00000000    3.81131   10.78000    3.81131    0    0    0
      28       28        2  0.00000000    5.71696   12.12750    3.81131    0    0    0
      29       29        1  2.00000000    7.62261   10.78000    7.62261    0    0    0
      30       30        2  0.00000000    1.90565   12.12750    7.62261    0    0    0
      31       31        1  2.00000000    3.81131   10.78000   11.43392    0    0    0
      32       32        2  0.00000000    5.71696   12.12750   11.43392    0    0    0
      33       33        1  2.00000000    7.62261   10.78000   15.24522    0    0    0
      34       34        2  0.00000000    1.90565   12.12750   15.24522    0    0    0
      35       35        1  2.00000000    3.81131   10.78000   19.05653    0    0    0
      36       36        2  0.00000000    5.71696   12.12750   19.05653    0    0    0
      37       37        1  2.00000000    0.00000   16.17000    0.00000    0    0    0
      38       38        2  0.00000000    1.90565   17.51750    0.00000    0    0    0
      39       39        1  2.00000000    3.81131   16.17000    3.81131    0    0    0
      40       40        2  0.00000000    5.71696   17.51750    3.81131    0    0    0
      41       41        1  2.00000000    7.62261   16.17000    7.62261    0    0    0
      42       42        2  0.00000000    1.90565   17.51750    7.62261    0    0    0
      43       43        1  2.00000000    3.81131   16.17000   11.43392    0    0    0
      44       44        2  0.00000000    5.71696   17.51750   11.43392    0    0    0
      45       45        1  2.00000000    7.62261   16.17000   15.24522    0    0    0
      46       46        2  0.00000000    1.90565   17.51750   15.24522    0    0    0
      47       47        1  2.00000000    3.81131   16.17000   19.05653    0    0    0
      48       48        2  0.00000000    5.71696   17.51750   19.05653    0    0    0
      49       49        1  2.00000000    0.00000   21.56000    0.00000    0    0    0
      50       50        2  0.00000000    1.90565   22.90750    0.00000    0    0    0
      51       51        1  2.00000000    3.81131   21.56000    3.81131    0    0    0
      52       52        2  0.00000000    5.71696   22.90750    3.81131    0    0    0
      53       53        1  2.00000000    7.62261   21.56000    7.62261    0    0    0
      54       54        2  0.00000000    1.90565   22.90750    7.62261    0    0    0
      55       55        1  2.00000000    3.81131   21.56000   11.43392    0    0    0
      56       56        2  0.00000000    5.71696   22.90750   11.43392    0    0    0
      57       57        1  2.00000000    7.62261   21.56000   15.24522    0    0    0
      58       58        2  0.00000000    1.90565   22.90750   15.24522    0    0    0
      59       59        1  2.00000000    3.81131   21.56000   19.05653    0    0    0
      60       60        2  0.00000000    5.71696   22.90750   19.05653    0    0    0
      61       61        1  2.00000000    0.00000   26.95000    0.00000    0    0    0
      62       62        2  0.00000000    1.90565   28.29750    0.00000    0    0    0
      63       63        1  2.00000000    3.81131   26.95000    3.81131    0    0    0
      64       64        2  0.00000000    5.71696   28.29750    3.81131    0    0    0
      65       65        1  2.00000000    7.62261   26.95000    7.62261    0    0    0
      66       66        2  0.00000000    1.90565   28.29750    7.62261    0    0    0
      67       67        1  2.00000000    3.81131   26.95000   11.43392    0    0    0
      68       68        2  0.00000000    5.71696   28.29750   11.43392    0    0    0
      69       69        1  2.00000000    7.62261   26.95000   15.24522    0    0    0
      70       70        2  0.00000000    1.90565   28.29750   15.24522    0    0    0
      71       71        1  2.00000000    3.81131   26.95000   19.05653    0    0    0
      72       72        2  0.00000000    5.71696   28.29750   19.05653    0    0    0
      73       73        1  2.00000000    7.62261    0.00000    0.00000    0    0    0
      74       74        2  0.00000000    9.52826    1.34750    0.00000    0    0    0
      75       75        1  2.00000000   11.43392    0.00000    3.81131    0    0    0
      76       76        2  0.00000000   13.33957    1.34750    3.81131    0    0    0
      77       77        1  2.00000000   15.24522    0.00000    7.62261    0    0    0
      78       78        2  0.00000000    9.52826    1.34750    7.62261    0    0    0
      79       79        1  2.00000000   11.43392    0.00000   11.43392    0    0    0
      80       80        2  0.00000000   13.33957    1.34750   11.43392    0    0    0
      81       81        1  2.00000000   15.24522    0.00000   15.24522    0    0    0
      82       82        2  0.00000000    9.52826    1.34750   15.24522    0    0    0
      83       83        1  2.00000000   11.43392    0.00000   19.05653    0    0    0
      84       84        2  0.00000000   13.33957    1.34750   19.05653    0    0    0
      85       85        1  2.00000000    7.62261    5.39000    0.00000    0    0    0
      86       86        2  0.00000000    9.52826    6.73750    0.00000    0    0    0
      87       87        1  2.00000000   11.43392    5.39000    3.81131    0    0    0
      88       88        2  0.00000000   13.33957    6.73750    3.81131    0    0    0
      89       89        1  2.00000000   15.24522    5.39000    7.62261    0    0    0
      90       90        2  0.00000000    9.52826    6.73750    7.62261    0    0    0
      91       91        1  2.00000000   11.43392    5.39000   11.43392    0    0    0
      92       92        2  0.00000000   13.33957    6.73750   11.43392    0    0    0
      93       93        1  2.00000000   15.24522    5.39000   15.24522    0    0    0
      94       94        2  0.00000000    9.52826    6.73750   15.24522    0    0    0
      95       95        1  2.00000000   11.43392    5.39000   19.05653    0    0    0
      96       96        2  0.00000000   13.33957    6.73750   19.05653    0    0    0
      97       97        1  2.00000000    7.62261   10.78000    0.00000    0    0    0
      98       98        2  0.00000000    9.52826   12.12750    0.00000    0    0    0
      99       99        1  2.00000000   11.43392   10.78000    3.81131    0    0    0
     100      100        2  0.00000000   13.33957   12.12750    3.81131    0    0    0
     101      101        1  2.00000000   15.24522   10.78000    7.62261    0    0    0
     102      102        2  0.00000000    9.52826   12.12750    7.62261    0    0    0
     103      103        1  2.00000000   11.43392   10.78000   11.43392    0    0    0
     104      104        2  0.00000000   13.33957   12.12750   11.43392    0    0    0
     105      105        1  2.00000000   15.24522   10.78000   15.24522    0    0    0
     106      106        2  0.00000000    9.52826   12.12750   15.24522    0    0    0
     107      107        1  2.00000000   11.43392   10.78000   19.05653    0    0    0
     108      108        2  0.00000000   13.33957   12.12750   19.05653    0    0    0
     109      109        1  2.00000000    7.62261   16.17000    0.00000    0    0    0
     110      110        2  0.00000000    9.52826   17.51750    0.00000    0    0    0
     111      111        1  2.00000000   11.43392   16.17000    3.81131    0    0    0
     112      112        2  0.00000000   13.33957   17.51750    3.81131    0    0    0
     113      113        1  2.00000000   15.24522   16.17000    7.62261    0    0    0
     114      114        2  0.00000000    9.52826   17.51750    7.62261    0    0    0
     115      115        1  2.00000000   11.43392   16.17000   11.43392    0    0    0
     116      116        2  0.00000000   13.33957   17.51750   11.43392    0    0    0
     117      117        1  2.00000000   15.24522   16.17000   15.24522    0    0    0
     118      118        2  0.00000000    9.52826   17.51750   15.24522    0    0    0
     119      119        1  2.00000000   11.43392   16.17000   19.05653    0    0    0
     120      120        2  0.00000000   13.33957   17.51750   19.05653    0    0    0
     121      121        1  2.00000000    7.62261   21.56000    0.00000    0    0    0
     122      122        2  0.00000000    9.52826   22.90750    0.00000    0    0    0
     123      123        1  2.00000000   11.43392   21.56000    3.81131    0    0    0
     124      124        2  0.00000000   13.33957   22.90750    3.81131    0    0    0
     125      125        1  2.00000000   15.24522   21.56000    7.62261    0    0    0
     126      126        2  0.00000000    9.52826   22.90750    7.62261    0    0    0
     127      127        1  2.00000000   11.43392   21.56000   11.43392    0    0    0
     128      128        2  0.00000000   13.33957   22.90750   11.43392    0    0    0
     129      129        1  2.00000000   15.24522   21.56000   15.24522    0    0    0
     130      130        2  0.00000000    9.52826   22.90750   15.24522    0    0    0
     131      131        1  2.00000000   11.43392   21.56000   19.05653    0    0    0
     132      132        2  0.00000000   13.33957   22.90750   19.05653    0    0    0
     133      133        1  2.00000000    7.62261   26.95000    0.00000    0    0    0
     134      134        2  0.00000000    9.52826   28.29750    0.00000    0    0    0
     135      135        1  2.00000000   11.43392   26.95000    3.81131    0    0    0
     136      136        2  0.00000000   13.33957   28.29750    3.81131    0    0    0
     137      137        1  2.00000000   15.24522   26.95000    7.62261    0    0    0
     138      138        2  0.00000000    9.52826   28.29750    7.62261    0    0    0
     139      139        1  2.00000000   11.43392   26.95000   11.43392    0    0    0
     140      140        2  0.00000000   13.33957   28.29750   11.43392    0    0    0
     141      141        1  2.00000000   15.24522   26.95000   15.24522    0    0    0
     142      142        2  0.00000000    9.52826   28.29750   15.24522    0    0    0
     143      143        1  2.00000000   11.43392   26.95000   19.05653    0    0    0
     144      144        2  0.00000000   13.33957   28.29750   19.05653    0    0    0
     145      145        1  2.00000000   15.24522    0.00000    0.00000    0    0    0
     146      146        2  0.00000000   17.15087    1.34750    0.00000    0    0    0
     147      147        1  2.00000000   19.05653    0.00000    3.81131    0    0    0
     148      148        2  0.00000000   20.96218    1.34750    3.81131    0    0    0
     149      149        1  2.00000000   22.86783    0.00000    7.62261    0    0    0
     150      150        2  0.00000000   17.15087    1.34750    7.62261    0    0    0
     151      151        1  2.00000000   19.05653    0.00000   11.43392    0    0    0
     152      152        2  0.00000000   20.96218    1.34750   11.43392    0    0    0
     153      153        1  2.00000000   22.86783    0.00000   15.24522    0    0    0
     154      154        2  0.00000000   17.15087    1.34750   15.24522    0    0    0
     155      155        1  2.00000000   19.05653    0.00000   19.05653    0    0    0
     156      156        2  0.00000000   20.96218    1.34750   19.05653    0    0    0
     157      157        1  2.00000000   15.24522    5.39000    0.00000    0    0    0
     158      158        2  0.00000000   17.15087    6.73750    0.00000    0    0    0
     159      159        1  2.00000000   19.05653    5.39000    3.81131    0    0    0
     160      160        2  0.00000000   20.96218    6.73750    3.81131    0    0    0
     161      161        1  2.00000000   22.86783    5.39000    7.62261    0    0    0
     162      162        2  0.00000000   17.15087    6.73750    7.62261    0    0    0
     163      163        1  2.00000000   19.05653    5.39000   11.43392    0    0    0
     164      164        2  0.00000000   20.96218    6.73750   11.43392    0    0    0
     165      165        1  2.00000000   22.86783    5.39000   15.24522    0    0    0
     166      166        2  0.00000000   17.15087    6.73750   15.24522    0    0    0
     167      167        1  2.00000000   19.05653    5.39000   19.05653    0    0    0
     168      168        2  0.00000000   20.96218    6.73750   19.05653    0    0    0
     169      169        1  2.00000000   15.24522   10.78000    0.00000    0    0    0
     170      170        2  0.00000000   17.15087   12.12750    0.00000    0    0    0
     171      171        1  2.00000000   19.05653   10.78000    3.81131    0    0    0
     172      172        2  0.00000000   20.96218   12.12750    3.81131    0    0    0
     173      173        1  2.00000000   22.86783   10.78000    7.62261    0    0    0
     174      174        2  0.00000000   17.15087   12.12750    7.62261    0    0    0
     175      175        1  2.00000000   19.05653   10.78000   11.43392    0    0    0
     176      176        2  0.00000000   20.96218   12.12750   11.43392    0    0    0
     177      177        1  2.00000000   22.86783   10.78000   15.24522    0    0    0
     178      178        2  0.00000000   17.15087   12.12750   15.24522    0    0    0
     179      179        1  2.00000000   19.05653   10.78000   19.05653    0    0    0
     180      180        2  0.00000000   20.96218   12.12750   19.05653    0    0    0
     181      181        1  2.00000000   15.24522   16.17000    0.00000    0    0    0
     182      182        2  0.00000000   17.15087   17.51750    0.00000    0    0    0
     183      183        1  2.00000000   19.05653   16.17000    3.81131    0    0    0
     184      184        2  0.00000000   20.96218   17.51750    3.81131    0    0    0
     185      185        1  2.00000000   22.86783   16.17000    7.62261    0    0    0
     186      186        2  0.00000000   17.15087   17.51750    7.62261    0    0    0
     187      187        1  2.00000000   19.05653   16.17000   11.43392    0    0    0
     188      188        2  0.00000000   20.96218   17.51750   11.43392    0    0    0
     189      189        1  2.00000000   22.86783   16.17000   15.24522    0    0    0
     190      190        2  0.00000000   17.15087   17.51750   15.24522    0    0    0
     191      191        1  2.00000000   19.05653   16.17000   19.05653    0    0    0
     192      192        2  0.00000000   20.96218   17.51750   19.05653    0    0    0
     193      193        1  2.00000000   15.24522   21.56000    0.00000    0    0    0
     194      194        2  0.00000000   17.15087   22.90750    0.00000    0    0    0
     195      195        1  2.00000000   19.05653   21.56000    3.81131    0    0    0
     196      196        2  0.00000000   20.96218   22.90750    3.81131    0    0    0
     197      197        1  2.00000000   22.86783   21.56000    7.62261    0    0    0
     198      198        2  0.00000000   17.15087   22.90750    7.62261    0    0    0
     199      199        1  2.00000000   19.05653   21.56000   11.43392    0    0    0
     200      200        2  0.00000000   20.96218   22.90750   11.43392    0    0    0
     201      201        1  2.00000000   22.86783   21.56000   15.24522    0    0    0
     202      202        2  0.00000000   17.15087   22.90750   15.24522    0    0    0
     203      203        1  2.00000000   19.05653   21.56000   19.05653    0    0    0
     204      204        2  0.00000000   20.96218   22.90750   19.05653    0    0    0
     205      205        1  2.00000000   15.24522   26.95000    0.00000    0    0    0
     206      206        2  0.00000000   17.15087   28.29750    0.00000    0    0    0
     207      207        1  2.00000000   19.05653   26.95000    3.81131    0    0    0
     208      208        2  0.00000000   20.96218   28.29750    3.81131    0    0    0
     209      209        1  2.00000000   22.86783   26.95000    7.62261    0    0    0
     210      210        2  0.00000000   17.15087   28.29750    7.62261    0    0    0
     211      211        1  2.00000000   19.05653   26.95000   11.43392    0    0    0
     212      212        2  0.00000000   20.96218   28.29750   11.43392    0    0    0
     213      213        1  2.00000000   22.86783   26.95000   15.24522    0    0    0
     214      214        2  0.00000000   17.15087   28.29750   15.24522    0    0    0
     215      215        1  2.00000000   19.05653   26.95000   19.05653    0    0    0
     216      216        2  0.00000000   20.96218   28.29750   19.05653    0    0    0
     217      217        1  2.00000000   22.86783    0.00000    0.00000    0    0    0
     218      218        2  0.00000000   24.77349    1.34750    0.00000    0    0    0
     219      219        1  2.00000000   26.67914    0.00000    3.81131    0    0    0
     220      220        2  0.00000000   28.58479    1.34750    3.81131    0    0    0
     221      221        1  2.00000000   30.49044    0.00000    7.62261    0    0    0
     222      222        2  0.00000000   24.77349    1.34750    7.62261    0    0    0
     223      223        1  2.00000000   26.67914    0.00000   11.43392    0    0    0
     224      224        2  0.00000000   28.58479    1.34750   11.43392    0    0    0
     225      225        1  2.00000000   30.49044    0.00000   15.24522    0    0    0
     226      226        2  0.00000000   24.77349    1.34750   15.24522    0    0    0
     227      227        1  2.00000000   26.67914    0.00000   19.05653    0    0    0
     228      228        2  0.00000000   28.58479    1.34750   19.05653    0    0    0
     229      229        1  2.00000000   22.86783    5.39000    0.00000    0    0    0
     230      230        2  0.00000000   24.77349    6.73750    0.00000    0    0    0
     231      231        1  2.00000000   26.67914    5.39000    3.81131    0    0    0
     232      232        2  0.00000000   28.58479    6.73750    3.81131    0    0    0
     233      233        1  2.00000000   30.49044    5.39000    7.62261    0    0    0
     234      234        2  0.00000000   24.77349    6.73750    7.62261    0    0    0
     235      235        1  2.00000000   26.67914    5.39000   11.43392    0    0    0
     236      236        2  0.00000000   28.58479    6.73750   11.43392    0    0    0
     237      237        1  2.00000000   30.49044    5.39000   15.24522    0    0    0
     238      238        2  0.00000000   24.77349    6.73750   15.24522    0    0    0
     239      239        1  2.00000000   26.67914    5.39000   19.05653    0    0    0
     240      240        2  0.00000000   28.58479    6.73750   19.05653    0    0    0
     241      241        1  2.00000000   22.86783   10.78000    0.00000    0    0    0
     242      242        2  0.00000000   24.77349   12.12750    0.00000    0    0    0
     243      243        1  2.00000000   26.67914   10.78000    3.81131    0    0    0
     244      244        2  0.00000000   28.58479   12.12750    3.81131    0    0    0
     245      245        1  2.00000000   30.49044   10.78000    7.62261    0    0    0
     246      246        2  0.00000000   24.77349   12.12750    7.62261    0    0    0
     247      247        1  2.00000000   26.67914   10.78000   11.43392    0    0    0
     248      248        2  0.00000000   28.58479   12.12750   11.43392    0    0    0
     249      249        1  2.00000000   30.49044   10.78000   15.24522    0    0    0
     250      250        2  0.00000000   24.77349   12.12750   15.24522    0    0    0
     251      251        1  2.00000000   26.67914   10.78000   19.05653    0    0    0
     252      252        2  0.00000000   28.58479   12.12750   19.05653    0    0    0
     253      253        1  2.00000000   22.86783   16.17000    0.00000    0    0    0
     254      254        2  0.00000000   24.77349   17.51750    0.00000    0    0    0
     255      255        1  2.00000000   26.67914   16.17000    3.81131    0    0    0
     256      256        2  0.00000000   28.58479   17.51750    3.81131    0    0    0
     257      257        1  2.00000000   30.49044   16.17000    7.62261    0    0    0
     258      258        2  0.00000000   24.77349   17.51750    7.62261    0    0    0
     259      259        1  2.00000000   26.67914   16.17000   11.43392    0    0    0
     260      260        2  0.00000000   28.58479   17.51750   11.43392    0    0    0
     261      261        1  2.00000000   30.49044   16.17000   15.24522    0    0    0
     262      262        2  0.00000000   24.77349   17.51750   15.24522    0    0    0
     263      263        1  2.00000000   26.67914   16.17000   19.05653    0    0    0
     264      264        2  0.00000000   28.58479   17.51750   19.05653    0    0    0
     265      265        1  2.00000000   22.86783   21.56000    0.00000    0    0    0
     266      266        2  0.00000000   24.77349   22.90750    0.00000    0    0    0
     267      267        1  2.00000000   26.67914   21.56000    3.81131    0    0    0
     268      268        2  0.00000000   28.58479   22.90750    3.81131    0    0    0
     269      269        1  2.00000000   30.49044   21.56000    7.62261    0    0    0
     270      270        2  0.00000000   24.77349   22.90750    7.62261    0    0    0
     271      271        1  2.00000000   26.67914   21.56000   11.43392    0    0    0
     272      272        2  0.00000000   28.58479   22.90750   11.43392    0    0    0
     273      273        1  2.00000000   30.49044   21.56000   15.24522    0    0    0
     274      274        2  0.00000000   24.77349   22.90750   15.24522    0    0    0
     275      275        1  2.00000000   26.67914   21.56000   19.05653    0    0    0
     276      276        2  0.00000000   28.58479   22.90750   19.05653    0    0    0
     277      277        1  2.00000000   22.86783   26.95000    0.00000    0    0    0
     278      278        2  0.00000000   24.77349   28.29750    0.00000    0    0    0
     279      279        1  2.00000000   26.67914   26.95000    3.81131    0    0    0
     280      280        2  0.00000000   28.58479   28.29750    3.81131    0    0    0
     281      281        1  2.00000000   30.49044   26.95000    7.62261    0    0    0
     282      282        2  0.00000000   24.77349   28.29750    7.62261    0    0    0
     283      283        1  2.00000000   26.67914   26.95000   11.43392    0    0    0
     284      284        2  0.00000000   28.58479   28.29750   11.43392    0    0    0
     285      285        1  2.00000000   30.49044   26.95000   15.24522    0    0    0
     286      286        2  0.00000000   24.77349   28.29750   15.24522    0    0    0
     287      287        1  2.00000000   26.67914   26.95000   19.05653    0    0    0
     288      288        2  0.00000000   28.58479   28.29750   19.05653    0    0    0
     289      289        1  2.00000000   30.49044    0.00000    0.00000    0    0    0
     290      290        2  0.00000000   32.39610    1.34750    0.00000    0    0    0
     291      291        1  2.00000000   34.30175    0.00000    3.81131    0    0    0
     292      292        2  0.00000000   36.20740    1.34750    3.81131    0    0    0
     293      293        1  2.00000000   38.11306    0.00000    7.62261    0    0    0
     294      294        2  0.00000000   32.39610    1.34750    7.62261    0    0    0
     295      295        1  2.00000000   34.30175    0.00000   11.43392    0    0    0
     296      296        2  0.00000000   36.20740    1.34750   11.43392    0    0    0
     297      297        1  2.00000000   38.11306    0.00000   15.24522    0    0    0
     298      298        2  0.00000000   32.39610    1.34750   15.24522    0    0    0
     299      299        1  2.00000000   34.30175    0.00000   19.05653    0    0    0
     300      300        2  0.00000000   36.20740    1.34750   19.05653    0    0    0
     301      301        1  2.00000000   30.49044    5.39000    0.00000    0    0    0
     302      302        2  0.00000000   32.39610    6.73750    0.00000    0    0    0
     303      303        1  2.00000000   34.30175    5.39000    3.81131    0    0    0
     304      304        2  0.00000000   36.20740    6.73750    3.81131    0    0    0
     305      305        1  2.00000000   38.11306    5.39000    7.62261    0    0    0
     306      306        2  0.00000000   32.39610    6.73750    7.62261    0    0    0
     307      307        1  2.00000000   34.30175    5.39000   11.43392    0    0    0
     308      308        2  0.00000000   36.20740    6.73750   11.43392    0    0    0
     309      309        1  2.00000000   38.11306    5.39000   15.24522    0    0    0
     310      310        2  0.00000000   32.39610    6.73750   15.24522    0    0    0
     311      311        1  2.00000000   34.30175    5.39000   19.05653    0    0    0
     312      312        2  0.00000000   36.20740    6.73750   19.05653    0    0    0
     313      313        1  2.00000000   30.49044   10.78000    0.00000    0    0    0
     314      314        2  0.00000000   32.39610   12.12750    0.00000    0    0    0
     315      315        1  2.00000000   34.30175   10.78000    3.81131    0    0    0
     316      316        2  0.00000000   36.20740   12.12750    3.81131    0    0    0
     317      317        1  2.00000000   38.11306   10.78000    7.62261    0    0    0
     318      318        2  0.00000000   32.39610   12.12750    7.62261    0    0    0
     319      319        1  2.00000000   34.30175   10.78000   11.43392    0    0    0
     320      320        2  0.00000000   36.20740   12.12750   11.43392    0    0    0
     321      321        1  2.00000000   38.11306   10.78000   15.24522    0    0    0
     322      322        2  0.00000000   32.39610   12.12750   15.24522    0    0    0
     323      323        1  2.00000000   34.30175   10.78000   19.05653    0    0    0
     324      324        2  0.00000000   36.20740   12.12750   19.05653    0    0    0
     325      325        1  2.00000000   30.49044   16.17000    0.00000    0    0    0
     326      326        2  0.00000000   32.39610   17.51750    0.00000    0    0    0
     327      327        1  2.00000000   34.30175   16.17000    3.81131    0    0    0
     328      328        2  0.00000000   36.20740   17.51750    3.81131    0    0    0
     329      329        1  2.00000000   38.11306   16.17000    7.62261    0    0    0
     330      330        2  0.00000000   32.39610   17.51750    7.62261    0    0    0
     331      331        1  2.00000000   34.30175   16.17000   11.43392    0    0    0
     332      332        2  0.00000000   36.20740   17.51750   11.43392    0    0    0