ITEM: TIMESTEP
0
ITEM: NUMBER OF ATOMS
1280
ITEM: BOX BOUNDS pp pp pp
0.0000000000000000e+00 4.5735666000000002e+01
0.0000000000000000e+00 3.2339998999999999e+01
0.0000000000000000e+00 3.9056530000000002e+01
ITEM: ATOMS id type xu yu zu vx vy vz
4 2 5.86435 1.81794 3.63712 0 -0 -0
16 2 5.94425 7.13247 3.68821 0 0 -0
74 2 8.17252 1.2571 0.570448 0 0 -0
76 2 13.2598 1.916 4.05217 0 0 0
86 2 8.09121 6.68494 0.44333 -0 -0 -0
87 1 11.7967 5.15886 1.12723 -0 0 0
88 2 13.4285 7.14542 4.12052 0 -0 -0
451 4 13.8838 2.03001 39.3142 0 0 0
474 5 11.2325 2.71577 39.474 -0 -0 -0
483 5 13.6409 0.98482 39.5058 0 -0 -0
484 5 13.7408 2.5932 40.2364 0 -0 -0
855 5 13.7457 7.74762 40.0504 0 -0 0
845 5 11.3632 7.98885 39.3212 -0 -0 -0
146 2 16.9653 0.435207 1.69924 0 -0 -0
148 2 20.8742 1.94841 3.99556 0 0 0
158 2 16.5374 6.29037 2.17739 -0 0 0
159 1 19.6045 5.10939 0.946368 -0 0 -0
160 2 21.0201 7.14578 4.06975 0 -0 0
981 4 21.5321 1.97443 39.2454 0 -0 -0
1004 5 18.8932 2.66078 39.4449 0 0 0
1013 5 21.3211 0.922754 39.4393 0 -0 0
1014 5 21.371 2.53671 40.1652 -0 -0 -0
1067 5 21.3769 7.81097 39.9577 0 0 0
1057 5 19.0418 7.87009 39.2395 -0 0 0
28 2 5.95603 12.5051 3.69878 0 0 -0
111 1 11.5797 15.9773 0.970619 -0 -0 0
98 2 8.12079 12.0865 0.434586 -0 -0 -0
99 1 12.1043 10.5659 0.770781 -0 -0 -0
100 2 13.4467 12.4965 4.09764 -0 -0 -0
898 5 11.3757 13.3911 39.294 0 -0 -0
908 5 13.7733 13.1595 40.0473 0 -0 -0
183 1 19.4864 15.8732 0.742974 0 -0 0
170 2 16.6056 11.6353 2.12849 -0 0 0
171 1 19.6537 10.4925 0.593567 0 0 -0
172 2 21.0214 12.508 4.04393 -0 -0 -0
1110 5 19.0142 13.2909 39.2008 0 -0 0
1120 5 21.3529 13.2226 39.9682 0 -0 0
6 2 2.50273 1.78248 7.74275 -0 -0 -0
8 2 6.26478 1.7554 11.3127 0 0 -0
17 1 6.97059 4.6655 6.72274 -0 0 0
18 2 2.49206 7.15526 7.73255 0 0 -0
20 2 6.24032 7.11613 11.3237 -0 -0 0
78 2 10.1272 1.78556 7.73563 -0 0 0
80 2 13.8762 1.74841 11.3208 0 0 0
89 1 14.8722 4.404 6.82427 0 -0 -0
90 2 10.0953 7.13519 7.69981 -0 0 0
92 2 13.8715 7.12175 11.327 0 -0 -0
163 1 18.6248 4.6085 12.6717 -0 -0 0
164 2 21.4957 7.12386 11.3221 -0 0 -0
150 2 17.7137 1.7139 7.70608 -0 -0 0
152 2 21.4696 1.71656 11.3331 0 0 0
161 1 22.6416 4.41116 6.76676 -0 0 0
162 2 17.7391 7.13992 7.70487 -0 -0 -0
41 1 7.02789 15.6301 6.85415 -0 0 -0
29 1 7.16049 10.1997 6.73207 0 -0 0
32 2 6.22975 12.5015 11.3209 0 0 0
30 2 2.50474 12.5521 7.73218 0 -0 -0
113 1 15.051 15.5608 6.77657 -0 -0 0
104 2 13.8593 12.5069 11.3173 0 0 0
102 2 10.1318 12.554 7.70808 0 -0 0
101 1 14.9841 10.0592 6.9208 0 0 -0
176 2 21.4724 12.4991 11.3092 -0 -0 0
174 2 17.8003 12.5848 7.7189 0 0 0
173 1 22.6183 10.0826 6.85191 0 0 0
185 1 22.6901 15.5963 6.83733 -0 0 -0
24 2 4.98813 7.9516 19.2658 -0 0 -0
22 2 2.01084 7.23755 15.5999 0 0 -0
19 1 3.4223 4.71557 13.2494 0 -0 0
10 2 2.07113 1.77094 15.4936 0 -0 -0
12 2 5.2608 2.00677 19.1221 0 0 -0
82 2 9.71321 1.76728 15.4716 -0 0 0
84 2 13.8164 1.90814 18.4253 -0 -0 0
94 2 9.67405 7.2037 15.5781 0 0 0
91 1 10.9023 4.65312 13.0994 0 -0 0
96 2 13.3315 7.81845 18.5049 -0 0 0
168 2 20.8482 7.95547 18.7187 -0 -0 0
93 1 17.2121 5.50192 18.9467 -0 -0 0
166 2 17.3149 7.17236 15.4952 0 -0 -0
156 2 21.215 1.94179 18.6996 0 0 -0
154 2 17.3299 1.7816 15.4721 -0 0 -0
36 2 5.13237 13.0095 19.1913 -0 0 -0
34 2 1.94122 12.7039 15.6705 -0 0 -0
43 1 3.43095 15.5195 13.5534 -0 0 0
31 1 3.49981 10.1456 13.577 0 0 -0
115 1 11.1922 15.5372 13.2054 0 -0 -0
45 1 8.15782 15.5803 19.4102 -0 0 -0
103 1 11.3078 10.0906 13.4599 -0 -0 0
106 2 9.58813 12.6966 15.6604 0 0 -0
108 2 13.1021 12.9849 18.5897 -0 -0 0
180 2 20.837 13.2987 18.5232 -0 -0 -0
175 1 19.2054 10.1661 13.6037 0 -0 0
187 1 19.0951 15.581 13.3742 -0 0 -0
178 2 17.1776 12.7129 15.6826 -0 -0 -0
381 1 0.659269 4.8735 20.6919 -0 -0 -0
21 1 7.25257 4.9977 19.8188 0 -0 -0
433 3 10.8413 5.94503 21.1835 -0 0 -0
434 3 9.42068 4.69332 21.2671 0 -0 0
439 4 11.1771 5.09943 25.7223 -0 0 -0
444 4 10.3635 5.72218 24.5713 0 -0 -0
450 4 10.7221 5.0138 23.2561 -0 0 -0
452 4 9.91566 5.62924 22.0978 -0 -0 0
461 5 12.2278 5.37509 25.6326 -0 0 -0
462 5 11.0907 4.01388 25.6752 -0 0 0
471 5 9.29658 5.60047 24.7583 0 -0 -0
472 5 10.5865 6.78783 24.5189 -0 -0 0
481 5 10.4789 3.95634 23.3598 -0 0 -0
482 5 11.7999 5.10492 23.1213 -0 -0 -0
95 1 11.6314 3.32206 20.7943 -0 0 -0
963 3 18.1505 5.99206 21.3149 -0 0 0
964 3 17.5689 4.19532 21.2361 -0 -0 -0
969 4 18.7402 5.0598 25.8034 0 0 -0
974 4 17.818 5.52298 24.6468 0 -0 -0
980 4 18.2837 4.82403 23.3616 -0 0 -0
982 4 17.4548 5.21008 22.1325 -0 -0 -0
991 5 19.7734 5.38034 25.6693 -0 -0 0
992 5 18.7534 3.97051 25.8403 0 0 -0
1001 5 16.7933 5.21849 24.8596 0 -0 0
1002 5 17.7986 6.60794 24.5439 0 0 0
1011 5 18.0885 3.77387 23.5787 0 -0 0
1012 5 19.3501 4.96628 23.1865 -0 0 0
167 1 19.0577 2.09737 21.8725 0 -0 0
179 1 20.2941 7.6844 24.4693 0 0 0
393 1 0.39748 10.2811 21.4011 0 -0 -0
405 1 0.501977 15.4831 21.1125 -0 0 -0
804 3 11.9152 11.0295 21.4797 -0 0 -0
805 3 10.2426 10.1524 21.219 0 0 0
810 4 11.0348 10.6064 25.8383 0 -0 0
815 4 10.2734 11.2483 24.6473 0 -0 -0
821 4 10.8155 10.5088 23.4139 0 -0 -0
823 4 10.6991 11.1443 22.0113 0 -0 -0
832 5 12.097 10.8466 25.7919 0 -0 0
833 5 10.9534 9.52067 25.7865 -0 -0 -0
842 5 9.20279 11.0702 24.7483 0 -0 -0
843 5 10.4326 12.3254 24.5943 -0 0 0
852 5 10.2931 9.55272 23.4456 -0 -0 -0
853 5 11.8731 10.3179 23.5961 -0 0 -0
863 4 11.1085 15.9014 25.7169 -0 0 0
874 4 10.8261 15.8311 23.2213 0 0 -0
906 5 11.9131 15.7505 23.2139 -0 -0 -0
886 5 11.0442 14.8134 25.7005 -0 0 -0
905 5 10.4152 14.826 23.1254 0 -0 0
119 1 13.1842 13.1187 24.744 -0 0 -0
107 1 12.1108 8.21248 21.9694 -0 -0 0
858 3 10.1494 16.0716 20.923 0 0 0
33 1 8.20649 10.4054 19.6507 0 -0 -0
177 1 22.2695 10.8582 20.712 0 0 0
1016 3 20.0001 11.5588 21.672 -0 0 0
1017 3 18.3197 10.6669 21.0135 -0 -0 -0
1022 4 18.737 10.5378 25.8293 0 0 0
1027 4 18.0649 11.1297 24.5702 0 0 0
1033 4 18.7075 10.4627 23.3212 0 -0 -0
1035 4 18.7398 11.3604 22.0699 0 -0 0
1044 5 19.7981 10.7871 25.8202 0 0 0
1045 5 18.6275 9.45376 25.7983 0 -0 0
1054 5 16.9958 10.9194 24.5999 -0 0 -0
1055 5 18.1918 12.2122 24.5587 -0 0 -0
1064 5 18.1638 9.53726 23.1312 -0 0 0
1065 5 19.7422 10.2005 23.5423 -0 -0 -0
1075 4 18.6923 16.0281 25.7354 -0 0 -0
1086 4 18.6104 15.8065 23.2352 0 0 0
1118 5 19.6753 15.6016 23.3459 0 -0 -0
1098 5 18.4913 14.9576 25.6954 -0 -0 -0
105 1 16.1355 10.6475 19.7295 -0 0 -0
1117 5 18.0814 14.8544 23.1947 0 0 0
191 1 20.8813 13.7099 26.0304 0 0 0
189 1 22.057 15.9844 21.2532 -0 0 0
117 1 15.4368 15.7026 19.5412 -0 -0 0
23 1 4.8629 5.44237 26.6066 -0 -0 -0
435 4 11.4136 4.94783 28.2473 0 -0 0
436 4 10.7598 5.40479 29.5555 0 -0 0
437 4 10.6298 5.5707 27.0733 0 -0 -0
438 4 11.4316 4.80555 30.8112 0 -0 0
443 4 10.8518 5.44751 32.089 -0 -0 0
447 4 9.34962 5.15152 32.3089 -0 -0 0
453 5 11.3717 3.85982 28.1966 -0 -0 -0
454 5 12.4542 5.27086 28.2152 -0 0 0
455 5 10.7918 6.4934 29.6001 -0 0 0
456 5 9.71656 5.09136 29.5172 0 -0 0
457 5 10.6957 6.65738 27.1271 0 0 -0
458 5 9.58021 5.28566 27.1449 0 0 0
459 5 12.503 5.00152 30.7684 -0 -0 -0
460 5 11.2829 3.72599 30.8345 -0 0 -0
469 5 10.9611 6.52793 31.995 0 0 0
477 5 8.7855 5.52445 31.4541 -0 0 0
157 1 13.9588 7.26869 -6.57728 0 0 -0
83 1 11.9734 1.52547 26.5064 -0 -0 -0
73 1 7.96312 0.912224 -7.53103 -0 -0 0
145 1 14.8261 1.39825 -7.0495 -0 0 -0
965 4 19.0219 5.02606 28.3202 -0 -0 0
966 4 18.323 5.45461 29.6129 -0 0 0
967 4 18.215 5.59464 27.1354 -0 0 -0
968 4 18.9598 4.83759 30.8756 -0 0 0
973 4 18.3823 5.5193 32.1319 0 -0 0
977 4 16.8762 5.26965 32.3635 -0 0 -0
983 5 19.0445 3.93701 28.2807 0 0 0
984 5 20.0454 5.40033 28.2992 0 0 -0
985 5 18.3475 6.54308 29.6652 0 -0 0
986 5 17.2812 5.139 29.5566 0 0 -0
987 5 18.2659 6.68339 27.1469 0 -0 0
988 5 17.1688 5.30429 27.2321 0 -0 0
989 5 20.0387 4.99077 30.8477 -0 -0 0
990 5 18.7663 3.76528 30.9039 -0 -0 -0
999 5 18.5069 6.59464 32.0045 -0 0 -0
1007 5 16.2991 5.62979 31.5119 0 -0 -0
155 1 18.795 1.3133 27.297 0 -0 0
217 1 22.3086 1.4694 -6.97415 0 -0 -0
35 1 6.17155 10.5929 26.6416 -0 -0 -0
47 1 5.20231 15.8163 26.1839 0 0 0
806 4 11.343 10.3436 28.2875 0 -0 0
807 4 10.7313 10.745 29.6232 -0 -0 -0
808 4 10.5127 11.0474 27.1887 -0 0 0
809 4 11.3977 10.0813 30.8462 0 0 -0
814 4 10.9297 10.8027 32.1297 -0 -0 -0
818 4 9.41032 10.624 32.3633 0 -0 -0
824 5 11.2917 9.26045 28.1764 0 0 0
825 5 12.3879 10.6501 28.2386 -0 -0 -0
826 5 10.7686 11.831 29.7092 -0 0 0
827 5 9.68752 10.4329 29.5883 0 0 -0
828 5 10.5877 12.1309 27.2807 0 0 -0
829 5 9.46558 10.7533 27.2613 0 0 0
830 5 12.4838 10.1353 30.7717 0 -0 -0
831 5 11.1264 9.02602 30.8747 0 0 0
840 5 11.1351 11.869 32.0348 0 -0 -0
848 5 8.87707 11.0562 31.5166 0 0 -0
859 4 11.3128 15.7215 28.2086 0 -0 0
862 4 11.2826 15.4548 30.7552 0 0 -0
871 4 9.35521 16.0456 32.3223 0 -0 0
877 5 11.2683 14.6366 28.1131 -0 -0 -0
878 5 12.3551 16.0402 28.2031 -0 0 0
880 5 9.59884 15.8394 29.4635 0 0 0
882 5 9.49047 16.1354 27.1093 -0 0 -0
883 5 12.3675 15.4483 30.6502 -0 0 -0
884 5 10.9683 14.4121 30.7989 0 0 -0
169 1 14.3359 12.1784 -8.70189 0 0 -0
860 4 10.647 16.1324 29.5227 0 -0 -0
1018 4 18.8988 10.3247 28.3223 -0 -0 0
1019 4 18.2675 10.7399 29.655 -0 -0 -0
1020 4 18.1343 11.003 27.1582 0 0 -0
1021 4 18.9005 10.024 30.8721 -0 0 -0
1026 4 18.5441 10.771 32.1749 0 -0 -0
1030 4 17.0364 10.7155 32.4848 0 -0 -0
1036 5 18.8406 9.24043 28.2267 -0 -0 0
1037 5 19.9489 10.6163 28.304 0 -0 -0
1038 5 18.3525 11.8222 29.7524 -0 -0 -0
1039 5 17.2094 10.48 29.6224 0 0 0
1040 5 18.1947 12.088 27.2432 0 0 0
1041 5 17.0849 10.7101 27.1912 0 -0 0
1042 5 19.9845 9.97059 30.7716 -0 -0 -0
1043 5 18.5376 8.99691 30.9115 0 0 0
1052 5 18.8184 11.8213 32.0761 -0 -0 0
1060 5 16.4844 11.2901 31.7411 0 0 -0
1071 4 18.8554 15.7953 28.2291 0 0 -0
1074 4 18.853 15.4638 30.7831 0 0 0
1083 4 16.9062 16.0351 32.3648 -0 -0 -0
1089 5 18.795 14.7141 28.1052 -0 0 0
1090 5 19.9023 16.0982 28.2485 -0 0 -0
1092 5 17.1546 15.8593 29.4978 0 0 0
1095 5 19.938 15.5087 30.6897 0 -0 -0
1096 5 18.5645 14.4129 30.8049 -0 0 0
241 1 21.7436 12.0836 -8.26307 0 -0 -0
1072 4 18.2006 16.1591 29.5626 -0 0 0
1079 4 18.4141 16.1592 32.0958 -0 0 -0
14 2 1.44696 7.31091 -0.224497 0 0 -0
85 1 6.7384 6.46527 -5.7957 0 0 0
2 2 1.46445 1.91804 -0.208037 0 0 0
15 1 4.23143 4.56316 -0.145332 0 0 0
440 4 10.6003 2.86174 36.0664 0 0 0
441 4 10.6508 3.44019 37.4928 -0 -0 0
442 4 9.739 3.69165 35.0876 -0 -0 0
445 4 11.4777 2.51287 38.4314 -0 -0 0
446 4 9.76942 2.99886 33.7051 -0 -0 -0
448 4 13.0135 2.62621 38.1842 -0 0 0
449 4 8.92191 3.70625 32.6307 -0 -0 0
463 5 10.1921 1.85204 36.111 -0 -0 0
464 5 11.6132 2.81429 35.6665 0 0 0
465 5 9.63538 3.53638 37.8771 -0 -0 0
466 5 11.0875 4.43764 37.4426 -0 -0 -0
467 5 8.7149 3.75005 35.4563 0 0 -0
468 5 10.1408 4.70266 35.0202 0 0 0
470 5 11.4319 5.14435 32.9605 0 0 0
473 5 11.1208 1.49267 38.2902 -0 -0 -0
475 5 10.7968 2.92083 33.3494 -0 0 -0
476 5 9.39512 1.98217 33.8248 0 -0 0
478 5 13.278 2.14016 37.2452 0 0 0
479 5 13.305 3.66994 38.067 0 -0 0
480 5 7.87555 3.69042 32.9356 0 0 0
816 4 11.585 7.83362 38.2654 -0 -0 0
819 4 13.1056 8.02133 37.9706 -0 0 -0
834 5 10.1129 7.2066 36.0426 -0 -0 -0
844 5 11.3157 6.80244 38.0368 0 0 0
847 5 9.30434 7.41916 33.763 0 -0 -0
849 5 13.3495 7.54452 37.0213 0 0 0
485 5 14.9347 2.09813 39.033 -0 0 -0
856 5 15.0587 7.78308 38.8692 0 0 0
854 5 14.0548 6.34744 38.9868 -0 -0 -0
822 4 14.0413 7.4356 39.0487 -0 0 -0
970 4 18.227 2.80828 36.0377 0 0 0
971 4 18.2673 3.35267 37.4769 -0 -0 0
972 4 17.3507 3.68034 35.1163 0 0 0
975 4 19.1119 2.43527 38.4011 0 -0 -0
976 4 17.3319 3.06903 33.7004 -0 0 0
978 4 20.6436 2.53255 38.1118 0 -0 0
979 4 16.4111 3.85782 32.7448 0 -0 0
993 5 17.825 1.79517 36.0505 0 -0 0
994 5 19.236 2.78546 35.6262 0 -0 0
995 5 17.2509 3.41923 37.8649 0 -0 -0
996 5 18.6779 4.36167 37.4392 0 0 -0
997 5 16.3368 3.72798 35.5136 -0 -0 0
998 5 17.7493 4.69424 35.0816 -0 0 -0
1000 5 18.9515 5.2336 33.0165 -0 0 -0
1003 5 18.7364 1.41872 38.2839 -0 -0 -0
1005 5 18.3427 3.01891 33.2956 0 0 -0
1006 5 16.9769 2.041 33.7727 0 0 0
1008 5 20.8872 2.01145 37.1859 -0 -0 0
1009 5 20.9377 3.56862 37.944 -0 -0 -0
1010 5 15.4336 3.97654 33.2122 -0 -0 -0
1028 4 19.2485 7.7312 38.1784 0 0 -0
1031 4 20.757 7.95842 37.8522 0 -0 0
1046 5 17.7161 7.1179 35.9584 0 0 0
1056 5 18.9887 6.70128 37.9337 0 0 -0
1059 5 16.6599 7.49153 33.7566 -0 0 -0
1061 5 21.0118 7.41117 36.9447 0 -0 -0
1047 5 19.1281 8.08104 35.483 0 0 0
229 1 21.2983 7.24586 -6.28355 0 0 -0
1015 5 22.5808 2.07471 38.9656 -0 0 0
1068 5 22.7037 7.98209 38.8082 -0 -0 0
1034 4 21.7312 7.51711 38.9696 -0 0 -0
1066 5 21.8785 6.43759 38.9378 0 0 0
97 1 6.82691 11.9784 -5.82939 -0 -0 0
26 2 1.40549 12.7552 -0.236299 0 0 0
39 1 4.16765 15.4714 -0.35662 -0 0 -0
27 1 4.0898 10.0551 -0.0783887 0 -0 0
811 4 10.537 8.20977 35.9984 0 0 0
812 4 10.664 8.75963 37.4263 -0 0 0
813 4 9.66354 9.08558 35.0796 -0 -0 0
817 4 9.68823 8.43602 33.681 0 -0 0
820 4 8.90207 9.18992 32.6003 0 0 -0
835 5 11.5363 8.14366 35.5683 -0 0 -0
836 5 9.6722 8.81086 37.8756 -0 0 0
837 5 11.0593 9.77345 37.3633 -0 -0 -0
838 5 8.64417 9.13841 35.462 -0 -0 -0
839 5 10.0763 10.0936 35.0383 -0 -0 -0
841 5 11.5006 10.462 32.9935 -0 0 -0
846 5 10.7232 8.34841 33.3504 0 -0 0
850 5 13.3507 9.07627 37.8477 0 0 -0
851 5 7.8353 9.195 32.8242 0 0 -0
864 4 10.5491 13.6707 35.9818 -0 0 -0
865 4 10.6855 14.2241 37.4094 0 0 0
866 4 9.66713 14.5365 35.0639 0 -0 0
869 4 11.6216 13.3023 38.2358 0 0 0
870 4 9.67985 13.8756 33.6696 -0 0 -0
872 4 13.139 13.5657 37.9868 0 -0 -0
873 4 8.85729 14.6172 32.6025 0 0 -0
887 5 10.1263 12.6673 36.0322 -0 0 -0
888 5 11.5451 13.6 35.5448 -0 -0 0
889 5 9.69628 14.2652 37.8654 -0 -0 0
890 5 11.077 15.2393 37.3445 -0 -0 -0
891 5 8.651 14.5882 35.455 -0 0 -0
892 5 10.0749 15.5459 35.0104 -0 -0 0
894 5 11.443 15.8598 32.9024 0 -0 -0
897 5 11.3923 12.2768 37.9463 -0 -0 0
899 5 10.7081 13.7755 33.3221 -0 -0 0
900 5 9.31004 12.8557 33.7756 0 0 0
902 5 13.4106 13.163 37.011 0 0 -0
903 5 13.3294 14.6382 37.9479 0 -0 0
904 5 7.80432 14.6517 32.8821 -0 -0 0
909 5 15.0962 13.4007 38.9015 -0 -0 0
907 5 14.2248 11.8904 38.8674 -0 -0 0
875 4 14.1065 12.9619 39.0285 -0 -0 -0
1087 4 21.7295 12.984 38.9736 -0 -0 0
1023 4 18.1408 8.12164 35.9432 0 -0 0
1024 4 18.2786 8.63482 37.3783 0 -0 -0
1025 4 17.2364 9.04813 35.1132 -0 -0 -0
1029 4 17.1358 8.47014 33.6942 -0 -0 0
1032 4 16.3414 9.37167 32.7383 0 -0 -0
1048 5 17.2959 8.63594 37.8498 -0 -0 -0
1049 5 18.6286 9.66548 37.32 -0 -0 -0
1050 5 16.2437 9.10895 35.5591 -0 0 -0
1051 5 17.6649 10.05 35.085 -0 -0 0
1053 5 19.1122 10.3859 33.0216 -0 -0 -0
1058 5 18.1424 8.3262 33.3015 -0 -0 0
1062 5 20.9503 9.00844 37.6327 0 0 -0
1063 5 15.394 9.61782 33.2178 -0 -0 0
1076 4 18.1481 13.6065 35.911 -0 0 -0
1077 4 18.2869 14.1331 37.3462 -0 0 0
1078 4 17.2309 14.4841 35.0453 -0 0 0
1081 4 19.2458 13.2131 38.1385 -0 -0 0
1082 4 17.1489 13.825 33.653 -0 0 -0
1084 4 20.7642 13.4538 37.8593 -0 0 0
1085 4 16.3451 14.6199 32.6165 0 -0 -0
1099 5 17.7372 12.5974 35.9432 0 -0 -0
1100 5 19.1375 13.5619 35.4558 -0 -0 -0
1101 5 17.3023 14.1357 37.8139 0 -0 0
1102 5 18.6465 15.1607 37.294 -0 -0 -0
1103 5 16.2347 14.5374 35.4844 -0 0 -0
1104 5 17.6403 15.4925 34.9845 0 -0 0
1106 5 18.9624 15.7612 32.9496 -0 -0 0
1109 5 18.9965 12.1965 37.8341 0 -0 0
1111 5 18.1541 13.648 33.2705 0 0 -0
1112 5 16.6657 12.8571 33.7862 -0 -0 0
1114 5 21.0367 12.9394 36.9378 -0 0 -0
1115 5 20.95 14.5132 37.6821 0 0 -0
1116 5 15.3208 14.6698 32.9859 -0 -0 -0
1121 5 22.6941 13.4765 38.8503 -0 -0 -0
1119 5 21.9122 11.9122 38.8971 -0 0 0
40 2 5.95973 17.8755 3.71644 0 -0 0
52 2 5.97333 23.2575 3.68032 -0 0 -0
51 1 4.00072 20.8166 0.442042 -0 -0 0
110 2 8.04957 17.5212 0.404185 -0 -0 -0
112 2 13.4328 17.8722 4.0953 -0 0 -0
123 1 12.4257 21.5275 1.05095 -0 0 0
124 2 13.7173 23.2999 3.94684 -0 0 -0
951 5 11.3797 19.0194 39.3553 0 0 0
961 5 13.7426 18.5682 40.0516 0 0 0
182 2 16.5631 17.1229 2.17712 0 -0 -0
184 2 21.0261 17.8675 4.06984 -0 -0 0
195 1 19.7049 21.5265 1.1218 -0 -0 -0
196 2 21.3235 23.2818 3.87982 -0 0 0
1163 5 19.0423 18.9193 39.3275 0 -0 -0
1173 5 21.3972 18.6064 40.0303 0 -0 -0
365 1 0.0398948 -0.680804 6.11276 -0 0 -0
64 2 5.93826 28.6864 3.6207 -0 0 -0
5 1 7.91471 -0.658748 5.61647 0 -0 -0
136 2 13.5359 28.6438 3.58181 0 0 -0
209 1 22.2852 26.4816 6.45629 -0 -0 0
77 1 15.5202 -0.818963 4.99317 0 0 0
208 2 21.1288 28.6625 3.52324 0 0 -0
42 2 2.50628 17.9436 7.73094 -0 -0 -0
44 2 6.21934 17.8835 11.3239 0 -0 0
53 1 7.18215 21.0664 6.92538 0 0 0
54 2 2.49403 23.3228 7.72596 0 0 0
56 2 6.22301 23.2716 11.3207 0 0 0
114 2 10.144 17.9486 7.70956 0 0 -0
116 2 13.8466 17.8936 11.3159 -0 0 -0
125 1 14.8301 21.0656 7.61158 0 -0 -0
126 2 10.1693 23.3603 7.73115 -0 0 0
128 2 13.8223 23.261 11.3289 0 0 0
198 2 17.8396 23.4055 7.72594 -0 0 -0
200 2 21.4166 23.2408 11.3368 0 -0 0
186 2 17.8252 18.0029 7.7269 0 0 -0
188 2 21.4635 17.8931 11.3043 -0 0 -0
197 1 22.429 21.1173 7.55388 -0 0 0
66 2 2.49687 28.7151 7.7343 0 -0 -0
68 2 6.24938 28.6851 11.3087 -0 -0 -0
7 1 3.63279 -0.736519 12.7269 -0 0 -0
65 1 7.34334 26.437 6.51803 0 0 0
140 2 13.8404 28.6579 11.3219 -0 0 -0
138 2 10.1642 28.7522 7.74967 0 -0 0
79 1 11.1371 -0.76991 12.6112 -0 0 -0
137 1 14.787 26.4758 6.57202 0 0 0
212 2 21.4261 28.6248 11.3402 -0 -0 -0
151 1 18.6588 -0.859093 12.4721 0 -0 0
210 2 17.7758 28.7453 7.7365 -0 0 0
60 2 5.34615 23.6363 19.158 0 0 -0
58 2 1.96185 23.4863 15.6073 0 0 -0
48 2 5.22849 18.31 19.1573 0 -0 -0
55 1 3.66651 20.8869 13.6095 -0 -0 0
46 2 1.93102 18.1109 15.6646 -0 0 0
130 2 9.51407 23.5453 15.6875 -0 -0 0
118 2 9.55559 18.0585 15.674 -0 0 0
127 1 11.3145 20.9498 13.8561 0 0 0
132 2 12.728 24.2216 18.5733 -0 -0 0
120 2 13.1716 18.5288 18.5933 0 -0 0
199 1 19.197 21.0223 14.1584 0 0 0
204 2 20.6352 23.9079 18.7104 0 0 -0
202 2 17.0668 23.5594 15.7356 0 0 -0
192 2 21.2048 18.4605 18.2373 -0 -0 -0
190 2 17.1533 18.0507 15.6847 -0 0 -0
67 1 3.92746 26.2282 13.3035 0 -0 0
72 2 5.19836 28.2388 19.0675 0 -0 0
70 2 2.03652 28.787 15.5181 0 0 -0
429 1 0.585793 26.0106 19.522 0 -0 0
142 2 9.60932 28.868 15.5704 -0 0 0
139 1 11.3855 26.2968 13.6056 0 -0 -0
144 2 12.668 28.2047 19.0123 -0 -0 -0
81 1 14.8102 -1.43481 19.2469 -0 -0 0
216 2 20.3286 28.3451 19.0653 -0 -0 0
211 1 18.8551 26.2929 13.7351 -0 -0 -0
214 2 17.1912 28.9259 15.621 -0 0 0
153 1 22.8648 -1.42054 19.2885 0 0 0
417 1 0.096001 20.7453 20.5365 0 0 -0
857 3 11.2866 17.6842 21.8902 -0 0 0
868 4 10.2948 16.4507 24.537 -0 -0 0
876 4 10.374 16.7181 22.0618 0 -0 -0
896 5 10.3417 17.5397 24.5399 0 0 -0
910 3 12.1616 21.8381 21.0607 0 0 -0
911 3 10.1157 22.4258 21.1935 0 -0 -0
916 4 11.082 21.4226 25.6922 0 -0 -0
921 4 10.5231 22.1189 24.4013 0 -0 0
927 4 11.2165 21.504 23.1645 0 -0 0
929 4 11.2624 22.3785 21.892 0 -0 0
938 5 12.1344 21.6918 25.7826 -0 -0 0
939 5 11.0198 20.343 25.5556 -0 -0 -0
948 5 9.44387 21.9764 24.347 -0 -0 0
949 5 10.7206 23.1895 24.4551 -0 -0 -0
958 5 10.756 20.5425 22.9376 -0 0 0
959 5 12.2635 21.3417 23.4204 -0 0 -0
129 1 14.6536 21.8005 20.2733 0 0 -0
885 5 12.153 16.2033 25.6406 -0 -0 -0
131 1 12.7335 18.6357 23.9909 -0 -0 0
57 1 8.57453 20.6193 20.1854 0 0 -0
895 5 9.24146 16.1962 24.6549 -0 0 -0
201 1 22.5886 21.3654 22.7752 0 -0 0
1069 3 19.5401 17.0142 21.304 -0 0 0
1080 4 18.1134 16.6452 24.453 0 -0 0
1088 4 18.421 16.592 21.9422 -0 0 0
1108 5 18.4464 17.6812 24.3908 0 0 -0
1122 3 19.6296 21.7609 21.2121 0 0 0
1123 3 17.5443 21.7033 21.2722 0 0 0
1128 4 18.7132 21.4248 25.7467 -0 -0 0
1133 4 18.1125 22.1463 24.5184 -0 0 -0
1139 4 18.8782 21.6244 23.2776 0 -0 0
1141 4 18.6044 22.2851 21.9156 -0 0 0
1150 5 19.7423 21.7558 25.886 0 -0 0
1151 5 18.7446 20.3485 25.5773 0 -0 0
1160 5 17.0489 21.9269 24.4253 0 -0 -0
1161 5 18.2407 23.2251 24.6065 0 0 -0
1170 5 18.6888 20.5533 23.207 0 -0 -0
1171 5 19.9323 21.7638 23.5177 -0 0 0
1070 3 17.5112 16.3315 20.9928 -0 -0 -0
203 1 18.7209 19.4204 20.5455 -0 0 0
1107 5 17.0245 16.6389 24.5007 0 0 -0
1097 5 19.7634 16.2301 25.7404 0 -0 -0
71 1 3.7337 26.5788 25.8555 0 -0 0
9 1 7.2548 -1.22326 19.7047 0 -0 0
369 1 0.276313 -0.724203 19.5361 0 -0 0
69 1 8.90266 25.5503 20.6711 -0 0 -0
141 1 16.5297 26.4933 21.9296 -0 -0 0
59 1 5.00456 21.164 26.1996 0 -0 0
861 4 10.5474 16.3954 27.0518 -0 0 -0
867 4 10.8612 16.2018 32.0465 -0 0 0
879 5 10.6989 17.2177 29.6094 -0 -0 0
881 5 10.6396 17.4791 27.124 0 0 -0
893 5 11.0554 17.269 31.939 -0 -0 -0
901 5 8.83489 16.4335 31.4466 0 -0 -0
912 4 11.1525 21.1828 28.2236 0 -0 -0
913 4 10.4945 21.6406 29.5203 -0 0 0
914 4 10.3546 21.7434 26.9918 0 -0 0
915 4 11.1947 21.1219 30.8143 -0 0 0
920 4 10.6181 21.8055 32.0744 -0 -0 0
924 4 9.11988 21.5208 32.3435 0 -0 0
930 5 11.1598 20.094 28.1727 -0 -0 -0
931 5 12.1853 21.5298 28.1927 -0 0 0
932 5 10.482 22.7301 29.5522 0 -0 -0
933 5 9.46662 21.2781 29.5148 -0 -0 0
934 5 10.2086 22.817 27.1107 0 0 0
935 5 9.36584 21.2847 26.9838 0 -0 -0
936 5 12.2609 21.3371 30.7431 -0 -0 0
937 5 11.0747 20.0401 30.8724 0 -0 -0
946 5 10.7438 22.8852 31.9928 0 0 -0
954 5 8.54465 21.8651 31.484 0 0 0
181 1 13.9632 17.2381 -7.17267 0 -0 0
1073 4 18.1187 16.5205 27.0702 0 0 -0
1091 5 18.2463 17.2421 29.6768 0 0 -0
1093 5 18.2467 17.599 27.1634 -0 0 0
1105 5 18.6417 17.223 32.0272 0 0 -0
1113 5 16.4208 16.4681 31.4902 -0 -0 -0
1124 4 18.7475 21.1286 28.2653 -0 -0 0
1125 4 18.0826 21.5989 29.5798 -0 -0 -0
1126 4 17.9222 21.6295 27.062 -0 -0 0
1127 4 18.8015 21.1015 30.8447 -0 -0 0
1132 4 18.2289 21.7954 32.1158 -0 -0 -0
1136 4 16.7334 21.5296 32.3738 0 0 -0
1142 5 18.7885 20.0395 28.2499 -0 0 -0
1143 5 19.7721 21.4995 28.2415 -0 0 -0
1144 5 18.0578 22.6887 29.5836 0 0 0
1145 5 17.0588 21.2251 29.5678 0 -0 0
1146 5 17.6461 22.6778 27.1749 0 0 -0
1147 5 16.9906 21.0671 26.9992 0 -0 0
1148 5 19.866 21.3218 30.7641 0 -0 0
1149 5 18.6963 20.0193 30.9211 0 -0 -0
1158 5 18.3743 22.8723 32.0295 -0 -0 -0
1166 5 16.1553 21.9398 31.5458 0 -0 -0
1169 5 16.4171 19.5114 31.6751 -0 -0 -0
1094 5 17.0527 16.2953 27.1046 -0 0 -0
11 1 3.74406 -0.0789041 26.057 0 0 -0
1 1 0.167843 -0.0530975 -6.66307 0 -0 -0
133 1 8.53321 27.5531 -8.12103 0 -0 0
143 1 12.1889 24.6942 26.6478 0 -0 -0
215 1 19.7136 24.4244 27.0736 0 -0 -0
205 1 15.8207 27.4802 -8.04461 0 -0 0
121 1 6.24489 22.8157 -5.72336 -0 0 -0
38 2 1.38534 18.1221 -0.263789 -0 0 -0
50 2 1.38856 23.5673 -0.262915 -0 -0 -0
109 1 6.56919 17.4032 -6.48497 0 0 0
917 4 10.5403 19.1243 36.0053 -0 0 -0
918 4 10.6772 19.7071 37.4281 -0 0 0
919 4 9.62507 19.9581 35.0797 0 0 0
922 4 11.5631 18.7852 38.3067 0 0 -0
923 4 9.61051 19.3116 33.6764 -0 0 0
925 4 13.082 18.8437 37.9753 0 0 -0
926 4 8.74719 20.0535 32.6331 0 0 0
940 5 10.1313 18.1162 36.0717 0 0 0
941 5 11.5304 19.0566 35.5546 0 -0 0
942 5 9.68455 19.7773 37.8729 -0 -0 -0
943 5 11.0956 20.7124 37.3778 -0 0 -0
944 5 8.61494 19.9792 35.4888 -0 0 0
945 5 9.99989 20.9803 35.0269 0 0 -0
947 5 11.1816 21.4892 32.9522 0 0 0
950 5 11.2105 17.7689 38.1312 -0 -0 0
952 5 10.6292 19.2316 33.297 0 0 -0
953 5 9.23357 18.294 33.7782 -0 0 0
955 5 13.2666 18.3126 37.0415 0 0 0
956 5 13.3919 19.8771 37.82 -0 0 0
957 5 7.6973 20.01 32.9228 0 0 0
193 1 13.8951 21.8164 -5.4651 0 -0 0
962 5 15.0354 18.5025 38.8469 -0 -0 -0
122 2 9.08479 23.4838 -0.39716 -0 0 -0
928 4 14.0023 18.2216 39.0513 0 -0 -0
960 5 13.9526 17.1333 39.0163 -0 -0 0
1172 5 21.8013 17.2764 38.9165 -0 -0 0
1129 4 18.1394 19.0942 35.997 -0 0 -0
1130 4 18.2935 19.6495 37.4318 -0 -0 0
1131 4 17.2147 19.9452 35.0946 -0 0 -0
1134 4 19.2419 18.7536 38.2688 0 0 -0
1135 4 17.1518 19.3003 33.6879 0 0 0
1137 4 20.7564 18.9374 37.9549 0 0 0
1138 4 16.33 20.0534 32.6168 -0 -0 0
1152 5 17.7305 18.0854 36.054 -0 -0 0
1153 5 19.1257 19.0307 35.5374 0 -0 0
1154 5 17.3096 19.6608 37.9009 0 -0 0
1155 5 18.6631 20.6741 37.3919 -0 0 -0
1156 5 16.2155 19.9806 35.5288 -0 -0 -0
1157 5 17.6073 20.9605 35.0381 0 -0 0
1159 5 18.7765 21.4627 32.9975 -0 -0 -0
1162 5 18.9612 17.7256 38.04 0 -0 0
1164 5 18.1671 19.17 33.3136 0 -0 0
1165 5 16.7181 18.3068 33.8025 -0 -0 0
1167 5 20.9849 18.4546 37.0047 0 -0 0
1168 5 20.9832 19.9971 37.8381 -0 -0 0
265 1 21.4692 21.7021 -5.72677 0 -0 0
1174 5 22.7157 18.772 38.8683 0 -0 0
1140 4 21.7185 18.3584 39.0188 -0 -0 -0
194 2 16.5858 23.5135 -0.429815 -0 -0 -0
253 1 21.4925 16.9141 -6.34559 0 -0 0
62 2 1.40226 29.1003 -0.220413 -0 -0 -0
3 1 4.70061 -0.723231 -1.07434 0 -0 0
63 1 3.86605 26.3546 -0.12157 0 0 -0
134 2 8.92675 29.1188 -0.148721 0 -0 0
135 1 11.167 26.4808 -1.02961 -0 -0 0
75 1 12.4975 -0.605809 -1.63461 -0 0 -0
207 1 18.7192 26.3881 -1.3626 0 -0 0
206 2 16.6365 29.1533 -0.129361 -0 0 0
147 1 20.0321 -0.67443 -1.70923 0 -0 0
218 2 24.5846 0.426449 1.70177 0 0 -0
220 2 28.5202 1.9634 3.98747 -0 -0 0
230 2 24.1382 6.30776 2.17458 0 0 0
231 1 27.215 5.08221 0.946939 0 -0 0
232 2 28.6033 7.12061 4.10516 -0 -0 -0
1193 4 29.1369 1.95093 39.2299 0 -0 -0
1216 5 26.5015 2.64243 39.4265 0 0 -0
1225 5 28.9237 0.899231 39.4212 0 0 0
1226 5 28.9753 2.51145 40.1507 -0 -0 0
1279 5 28.9921 7.81122 39.9541 0 0 -0
1269 5 26.6428 7.84729 39.2279 0 -0 -0
290 2 32.186 0.547689 1.78416 -0 0 0
292 2 36.1559 1.85328 4.15133 -0 0 -0
302 2 31.7775 6.70462 2.28607 -0 -0 0
303 1 34.5601 4.92746 1.14473 0 -0 -0
304 2 36.316 7.06578 4.209 -0 -0 0
610 4 36.7429 1.85965 39.3887 0 -0 -0
633 5 34.1352 2.47246 39.3471 -0 -0 0
642 5 36.4947 0.804191 39.5004 -0 0 0
643 5 36.489 2.38007 40.3122 -0 0 0
644 5 37.8204 1.94109 39.2453 0 0 -0
663 4 36.9017 7.33635 39.2838 -0 0 -0
695 5 36.9731 6.25517 39.1652 0 0 -0
696 5 36.4568 7.57354 40.2502 0 -0 -0
697 5 37.9127 7.74368 39.2833 0 -0 -0
686 5 34.2413 7.75722 39.2734 0 0 -0
377 1 -0.198653 4.76909 6.13395 0 -0 -0
364 2 44.0348 1.76136 3.60912 -0 -0 0
376 2 44.0231 7.18264 3.58112 0 -0 -0
242 2 24.1622 11.6778 2.16061 0 0 -0
243 1 27.1309 10.4781 0.645857 0 -0 0
244 2 28.5547 12.4907 4.10305 0 -0 -0
527 5 26.6253 13.305 39.2073 -0 0 0
537 5 28.9739 13.2235 39.9686 0 0 0
255 1 27.1229 15.8916 0.837809 -0 0 -0
327 1 34.5805 15.8736 1.02561 -0 -0 -0
314 2 31.7291 12.1499 2.37023 -0 -0 -0
315 1 34.3386 10.4162 0.955329 0 0 -0
316 2 36.3061 12.4463 4.19307 -0 0 0
716 4 36.9018 12.7493 39.2835 -0 0 -0
739 5 34.2581 13.2149 39.254 0 0 -0
748 5 36.9529 11.6672 39.1631 -0 0 0
749 5 36.4528 12.9879 40.2476 -0 -0 0
750 5 37.921 13.1355 39.2968 -0 0 -0
401 1 -0.297813 15.6061 6.37226 -0 0 0
389 1 -0.308934 10.2254 6.34593 0 -0 0
388 2 44.0349 12.5578 3.59108 0 -0 0
222 2 25.3202 1.69209 7.69416 -0 0 0
224 2 29.0804 1.70588 11.3362 -0 0 -0
233 1 30.3775 4.4526 7.02642 -0 0 0
234 2 25.356 7.14013 7.69913 -0 0 -0
235 1 26.4111 4.65168 12.7982 -0 0 -0
236 2 29.1112 7.1206 11.321 0 -0 -0
294 2 32.9378 1.66975 7.68882 0 -0 -0
296 2 36.6995 1.69818 11.3377 -0 0 0
306 2 32.991 7.1545 7.69856 0 0 0
308 2 36.7385 7.1266 11.314 0 0 0
305 1 38.355 4.60264 6.61127 0 -0 -0
366 2 40.5805 1.6782 7.7253 -0 -0 0
368 2 44.3647 1.73089 11.3171 -0 -0 -0
378 2 40.6978 7.22352 7.7746 0 0 -0
379 1 41.9696 4.74667 12.8738 -0 0 -0
380 2 44.3956 7.15807 11.2928 -0 -0 0
257 1 30.2898 15.6059 7.08864 -0 -0 -0
245 1 30.2085 10.0964 7.13873 -0 -0 0
246 2 25.4136 12.5755 7.71039 -0 -0 -0
248 2 29.0617 12.469 11.3314 -0 0 0
318 2 33.0375 12.5771 7.70406 0 -0 -0
320 2 36.6809 12.4657 11.3381 -0 0 0
329 1 38.1539 15.5281 6.88137 0 0 0
317 1 38.1563 10.1091 6.77072 -0 -0 0
390 2 40.7301 12.6304 7.77342 0 -0 -0
392 2 44.3455 12.5024 11.3104 0 0 0
165 1 24.0759 5.33021 19.0435 0 -0 0
228 2 28.8415 1.89323 18.7451 0 -0 0
238 2 24.9173 7.14996 15.5522 -0 0 -0
226 2 24.9451 1.78717 15.4898 -0 0 -0
312 2 36.6412 7.29613 18.6227 0 0 -0
310 2 32.5032 7.17138 15.5921 0 0 -0
300 2 36.641 1.81406 18.4413 0 -0 0
298 2 32.5504 1.80609 15.5246 0 0 -0
307 1 34.3347 4.69006 13.0468 0 -0 -0
237 1 31.0479 5.33369 19.2587 -0 0 -0
370 2 40.174 1.78758 15.502 0 0 -0
372 2 43.4091 2.08551 19.2323 -0 -0 -0
382 2 40.1455 7.18195 15.539 0 0 -0
384 2 43.447 7.45212 19.235 0 -0 0
309 1 40.1865 5.17231 19.3054 0 0 -0
250 2 24.7312 12.7593 15.7715 -0 -0 0
252 2 29.2975 12.8074 18.1284 0 -0 0
259 1 26.5528 15.5345 13.7107 -0 -0 -0
240 2 28.8632 8.12299 18.0306 -0 -0 -0
247 1 26.7169 10.1971 13.9255 0 -0 0
322 2 32.3954 12.7341 15.7554 -0 0 -0
331 1 34.146 15.5068 13.5738 -0 -0 -0
319 1 34.215 10.1828 13.701 -0 -0 -0
324 2 36.449 12.9195 18.5732 0 -0 -0
403 1 41.9997 15.5478 13.417 -0 0 0
396 2 43.4088 12.8049 19.2184 0 0 -0
394 2 40.0569 12.6809 15.6473 -0 0 -0
391 1 41.9606 10.2106 13.5542 0 -0 -0
1175 3 25.7133 6.325 21.0407 -0 0 -0
1176 3 25.2987 4.40195 21.1986 0 0 -0
1181 4 26.5294 5.21434 25.738 0 0 -0
1186 4 25.8096 5.88036 24.53 -0 -0 0
1192 4 26.2101 5.19005 23.209 -0 -0 0
1194 4 25.2818 5.48655 22.0191 -0 0 -0
1203 5 27.5854 5.48403 25.7282 0 0 0
1204 5 26.4579 4.12832 25.6786 -0 0 -0
1213 5 24.7327 5.78054 24.6658 -0 -0 0
1214 5 26.0527 6.94238 24.4969 -0 0 -0
1223 5 26.0615 4.13969 23.4595 0 0 -0
1224 5 27.259 5.36165 22.9675 -0 0 -0
239 1 26.7629 2.23411 21.9646 -0 -0 0
592 3 33.4648 6.22789 21.0387 0 0 -0
593 3 32.5821 4.68643 21.2641 0 0 0
598 4 34.1172 5.13647 25.7551 0 0 -0
603 4 33.3669 5.82528 24.5894 -0 0 0
609 4 33.7664 5.21531 23.2389 0 0 -0
611 4 32.8334 5.70618 22.1106 0 0 0
620 5 35.1683 5.42475 25.7465 -0 -0 0
621 5 34.0604 4.05204 25.6608 0 -0 -0
630 5 32.2936 5.69118 24.7249 -0 -0 -0
631 5 33.5893 6.89228 24.6004 -0 0 -0
640 5 33.6378 4.14057 23.3674 -0 -0 -0
641 5 34.8144 5.44309 23.0444 -0 0 0
311 1 34.8347 3.2896 21.1763 0 -0 -0
492 4 26.4775 15.7849 25.7151 0 -0 -0
503 4 26.3945 15.9776 23.1782 -0 0 -0
514 5 27.5378 16.0373 25.7193 0 -0 -0
515 5 26.3794 14.7018 25.6407 -0 -0 -0
249 1 30.2769 9.53689 25.8091 -0 -0 -0
534 5 26.2683 14.8964 23.1218 -0 -0 0
1228 3 26.4342 11.5835 21.1593 -0 0 0
1229 3 24.8193 10.5967 21.491 0 0 -0
1234 4 26.4998 10.5077 25.8494 -0 -0 -0
1239 4 25.7951 11.2256 24.6825 -0 0 0
1245 4 26.3357 10.7164 23.3449 -0 0 -0
1247 4 25.601 11.4411 22.1999 -0 -0 -0
1256 5 27.5529 10.7883 25.8631 0 -0 0
1257 5 26.4197 9.42624 25.739 -0 -0 0
1266 5 24.7245 11.0258 24.7291 -0 -0 -0
1267 5 25.9591 12.3 24.7647 0 0 0
1276 5 26.1498 9.64243 23.3421 -0 -0 0
1277 5 27.4103 10.8935 23.3005 -0 0 -0
263 1 26.9852 14.1856 20.5627 -0 0 -0
251 1 26.8425 8.84194 20.9765 0 0 -0
487 3 24.7667 15.9156 21.4003 -0 -0 -0
645 3 34.3785 11.534 21.0678 0 0 0
646 3 32.693 10.9503 21.6952 0 -0 -0