Created by /home/rramji/scripts/createLammpsInput.pl on Mon Aug 28 17:25:22 2023

         164 atoms
         168 bonds
         304 angles
         454 dihedrals
         108 impropers

           6 atom types
           9 bond types
           3 angle types
           7 dihedral types
           1 improper types

		   0.000000  30.102500 xlo xhi
		   0.000000  21.207400 ylo yhi
		   0.000000  16.471500 zlo zhi

Masses

    1 1.2011E+01 # C_R    
    2 1.2011E+01 # C_3    
    3 1.5999E+01 # O_R    
    4 1.0080E+00 # H___A  
    5 1.0080E+00 # H_     
    6 1.5999E+01 # O_2    

Pair Coeffs

    1    0.09510    3.47299 # C_R C_R 
    2    0.09510    3.47299 # C_3 C_3 
    3    0.09570    3.03315 # O_R O_R 
    4          0    2.84642 # H___A H___A 
    5    0.01520    2.84642 # H_ H_ 
    6    0.09570    3.03315 # O_2 O_2 

Bond Coeffs

    1      350     1.46 # C_R C_3 
    2      525     1.39 # C_R C_R 
    3      350     1.42 # O_R C_3 
    4      350     1.53 # C_3 C_3 
    5      350     0.98 # O_R H___A 
    6      350     1.02 # C_R H_ 
    7      525     1.35 # O_R C_R 
    8      700     1.25 # O_2 C_R 
    9      350     1.09 # C_3 H_ 

Angle Coeffs

    1       50      120 # X C_R X 
    2       50  109.471 # X C_3 X 
    3       50      120 # X O_R X 

Dihedral Coeffs

    1 0.0833333       -1        6 # C_R C_R C_3 X 
    2 0.0833333       -1        6 # O_2 C_R C_3 X 
    3 0.111111        1        3 # X C_3 C_3 X 
    4 0.166667        1        3 # X C_R C_3 X 
    5    3.125       -1        2 # X C_R C_R X 
    6 0.333333        1        3 # X O_R C_3 X 
    7     6.25       -1        2 # X O_R C_R X 

Improper Coeffs

    1  13.3333        0 # C_R X X X 

Atoms

       1        1        1 -0.14350000  -12.55040   -0.49280    4.88000    0    0    0
       2        1        2  0.56700000  -11.07680   -0.19130    5.21250    0    0    0
       3        1        3 -0.68000000  -10.68000   -1.19900    6.16700    0    0    0
       4        1        4  0.40000000  -11.42900   -1.33770    6.76630    0    0    0
       5        1        1 -0.15000000  -13.55720    0.48310    4.87190    0    0    0
       6        1        5  0.15000000  -13.34510    1.49510    5.09640    0    0    0
       7        1        1 -0.15000000  -14.87100    0.14480    4.56480    0    0    0
       8        1        5  0.15000000  -15.63120    0.88730    4.57290    0    0    0
       9        1        1 -0.15000000  -15.20000   -1.16310    4.23840    0    0    0
      10        1        5  0.15000000  -16.20480   -1.40480    3.99800    0    0    0
      11        1        1 -0.15000000  -14.21210   -2.13920    4.22110    0    0    0
      12        1        5  0.15000000  -14.45970   -3.13670    3.96350    0    0    0
      13        1        1 -0.15000000  -12.89870   -1.80530    4.53720    0    0    0
      14        1        5  0.15000000  -12.15240   -2.55910    4.50890    0    0    0
      15        1        1  0.08250000   -8.66450   -0.45340    1.62170    0    0    0
      16        1        3 -0.16500000   -7.90580   -0.47830    0.46680    0    0    0
      17        1        1 -0.15000000   -9.83560    0.29590    1.61910    0    0    0
      18        1        5  0.15000000  -10.12560    0.82270    0.74650    0    0    0
      19        1        1 -0.15000000  -10.61620    0.34930    2.77020    0    0    0
      20        1        5  0.15000000  -11.50980    0.92000    2.76280    0    0    0
      21        1        1 -0.14350000  -10.23390   -0.33770    3.93030    0    0    0
      22        1        1 -0.15000000   -9.06040   -1.10670    3.90090    0    0    0
      23        1        5  0.15000000   -8.75060   -1.64300    4.76160    0    0    0
      24        1        1 -0.15000000   -8.27880   -1.17040    2.75270    0    0    0
      25        1        5  0.15000000   -7.39950   -1.76080    2.74180    0    0    0
      26        1        1  0.08250000   -3.83610   -1.23490    0.37920    0    0    0
      27        1        3 -0.16500000   -2.48960   -1.53580    0.33020    0    0    0
      28        1        1 -0.15000000   -4.68670   -1.91870   -0.48880    0    0    0
      29        1        5  0.15000000   -4.29000   -2.63220   -1.16400    0    0    0
      30        1        1 -0.15000000   -6.05230   -1.65170   -0.45910    0    0    0
      31        1        5  0.15000000   -6.71710   -2.15570   -1.11230    0    0    0
      32        1        1  0.08250000   -6.54560   -0.71620    0.44890    0    0    0
      33        1        1 -0.15000000   -5.69530   -0.02740    1.31750    0    0    0
      34        1        5  0.15000000   -6.09040    0.68490    1.99520    0    0    0
      35        1        1 -0.15000000   -4.32850   -0.28720    1.28150    0    0    0
      36        1        5  0.15000000   -3.66970    0.22390    1.93490    0    0    0
      37        1        1 -0.14350000    0.39770    1.40450    0.91340    0    0    0
      38        1        2  0.56700000    1.44250    2.50900    1.15890    0    0    0
      39        1        3 -0.68000000    1.96400    2.95310   -0.11470    0    0    0
      40        1        4  0.40000000    2.77040    3.46050    0.06130    0    0    0
      41        1        1 -0.15000000   -0.28470    1.30140   -0.30940    0    0    0
      42        1        5  0.15000000   -0.07160    1.97800   -1.09740    0    0    0
      43        1        1 -0.15000000   -1.25340    0.32270   -0.50460    0    0    0
      44        1        5  0.15000000   -1.77150    0.25190   -1.42560    0    0    0
      45        1        1  0.08250000   -1.53540   -0.56850    0.52360    0    0    0
      46        1        1 -0.15000000   -0.86620   -0.50020    1.73940    0    0    0
      47        1        5  0.15000000   -1.08830   -1.19580    2.50670    0    0    0
      48        1        1 -0.15000000    0.09150    0.49040    1.93330    0    0    0
      49        1        5  0.15000000    0.59320    0.54330    2.86560    0    0    0
      50        1        1 -0.15000000    4.82880    0.70810    3.22040    0    0    0
      51        1        5  0.15000000    5.65550    0.26000    3.70990    0    0    0
      52        1        1 -0.15000000    4.61150    0.47730    1.86820    0    0    0
      53        1        5  0.15000000    5.26990   -0.15160    1.32520    0    0    0
      54        1        1 -0.15000000    3.52660    1.06520    1.22610    0    0    0
      55        1        5  0.15000000    3.36530    0.86260    0.19680    0    0    0
      56        1        1 -0.14350000    2.64470    1.90360    1.91940    0    0    0
      57        1        1 -0.15000000    2.86940    2.11100    3.28840    0    0    0
      58        1        5  0.15000000    2.21710    2.71550    3.86160    0    0    0
      59        1        1 -0.15000000    3.95540    1.52260    3.92980    0    0    0
      60        1        5  0.15000000    4.11590    1.69350    4.96370    0    0    0
      61        1        1  0.90600000    1.39680   11.16280   -0.57760    0    0    0
      62        1        2 -0.26600000    0.65040    9.89550   -0.18330    0    0    0
      63        1        5  0.08000000    1.31100    9.05590   -0.38810    0    0    0
      64        1        5  0.08000000   -0.23360    9.81800   -0.81260    0    0    0
      65        1        2 -0.16000000    0.24080    9.88820    1.29920    0    0    0
      66        1        5  0.08000000    1.14010   10.02010    1.90520    0    0    0
      67        1        2 -0.16000000   -0.45490    8.57440    1.67930    0    0    0
      68        1        5  0.08000000    0.22020    7.74470    1.46750    0    0    0
      69        1        5  0.08000000   -1.36080    8.45900    1.08170    0    0    0
      70        1        2 -0.16000000   -0.81320    8.57920    3.17110    0    0    0
      71        1        2 -0.16000000   -1.47670    7.26170    3.59470    0    0    0
      72        1        5  0.08000000   -2.41930    7.13600    3.05870    0    0    0
      73        1        2 -0.16000000   -1.73400    7.25960    5.10670    0    0    0
      74        1        5  0.08000000   -2.42100    8.06870    5.36120    0    0    0
      75        1        5  0.08000000   -0.79010    7.44060    5.62400    0    0    0
      76        1        2 -0.02180000   -2.31880    5.93840    5.62380    0    0    0
      77        1        5  0.08000000   -3.28830    5.76600    5.17910    0    0    0
      78        1        1 -0.28820000   -2.37310    5.90380    7.13770    0    0    0
      79        1        5  0.15000000   -1.41940    5.87360    7.60200    0    0    0
      80        1        1 -0.28820000   -3.48710    5.91550    7.88730    0    0    0
      81        1        5  0.15000000   -3.41830    5.87720    8.94560    0    0    0
      82        1        2 -0.02180000   -4.90780    5.95420    7.36390    0    0    0
      83        1        2 -0.16000000   -5.46400    4.54630    7.11170    0    0    0
      84        1        5  0.08000000   -4.93220    4.11220    6.26360    0    0    0
      85        1        2 -0.16000000   -6.97540    4.51760    6.84440    0    0    0
      86        1        5  0.08000000   -7.21380    5.15610    5.99160    0    0    0
      87        1        5  0.08000000   -7.50300    4.88820    7.72550    0    0    0
      88        1        2 -0.16000000   -7.41450    3.07860    6.54790    0    0    0
      89        1        5  0.08000000   -6.96180    2.75960    5.60660    0    0    0
      90        1        2 -0.16000000   -8.94150    2.94980    6.45520    0    0    0
      91        1        5  0.08000000   -9.32430    3.63560    5.69710    0    0    0
      92        1        5  0.08000000   -9.37760    3.20070    7.42260    0    0    0
      93        1        2 -0.16000000   -9.29050    1.50390    6.06490    0    0    0
      94        1        5  0.08000000   -8.77830    1.31380    5.12270    0    0    0
      95        1        2 -0.08000000  -10.80540    1.20360    5.89740    0    0    0
      96        1        5  0.08000000  -11.20790    1.94880    5.21630    0    0    0
      97        1        2 -0.24000000  -11.49660    1.36560    7.27640    0    0    0
      98        1        5  0.08000000  -10.96980    0.78220    8.03300    0    0    0
      99        1        5  0.08000000  -12.53130    1.02770    7.24420    0    0    0
     100        1        5  0.08000000  -11.49900    2.41330    7.57570    0    0    0
     101        1        5  0.08000000   -8.87360    0.81740    6.80470    0    0    0
     102        1        5  0.08000000   -7.05640    2.42110    7.34310    0    0    0
     103        1        5  0.08000000   -5.25320    3.93500    7.99110    0    0    0
     104        1        5  0.08000000   -4.97910    6.55510    6.46770    0    0    0
     105        1        5  0.08000000   -5.52720    6.46340    8.09040    0    0    0
     106        1        5  0.08000000   -1.70470    5.11460    5.28510    0    0    0
     107        1        5  0.08000000   -0.81530    6.43150    3.34920    0    0    0
     108        1        5  0.08000000   -1.49170    9.40990    3.37490    0    0    0
     109        1        5  0.08000000    0.10000    8.72690    3.75110    0    0    0
     110        1        5  0.08000000   -0.42690   10.73260    1.48250    0    0    0
     111        1        6 -0.90000000    2.62270   11.18670   -0.34020    0    0    0
     112        1        6 -0.90000000    0.72470   12.07070   -1.10970    0    0    0
     113        1        1  0.90600000  -17.59370    2.48810    2.62270    0    0    0
     114        1        2 -0.26600000  -16.16260    2.54950    2.10750    0    0    0
     115        1        5  0.08000000  -16.19460    2.85480    1.06360    0    0    0
     116        1        5  0.08000000  -15.75480    1.54290    2.16550    0    0    0
     117        1        2 -0.16000000  -15.28110    3.52470    2.90900    0    0    0
     118        1        5  0.08000000  -15.65380    4.53980    2.75810    0    0    0
     119        1        2 -0.16000000  -13.81520    3.42620    2.46660    0    0    0
     120        1        5  0.08000000  -13.75500    3.64810    1.40020    0    0    0
     121        1        5  0.08000000  -13.46410    2.40750    2.63490    0    0    0
     122        1        2 -0.16000000  -12.94200    4.41470    3.25590    0    0    0
     123        1        2 -0.16000000  -11.43340    4.21140    3.03980    0    0    0
     124        1        5  0.08000000  -10.89760    4.92750    3.66560    0    0    0
     125        1        2 -0.16000000  -10.98330    4.39220    1.58370    0    0    0
     126        1        5  0.08000000  -11.26620    5.38890    1.24100    0    0    0
     127        1        5  0.08000000  -11.48170    3.65380    0.95430    0    0    0
     128        1        2 -0.02180000   -9.46820    4.21360    1.40850    0    0    0
     129        1        5  0.08000000   -8.94160    4.93850    2.01540    0    0    0
     130        1        1 -0.28820000   -9.02230    4.35110   -0.03250    0    0    0
     131        1        5  0.15000000   -9.74060    4.77980   -0.68550    0    0    0
     132        1        1 -0.28820000   -7.81700    3.98680   -0.49900    0    0    0
     133        1        5  0.15000000   -7.58030    4.11160   -1.52590    0    0    0
     134        1        2 -0.02180000   -6.69860    3.38250    0.32750    0    0    0
     135        1        2 -0.16000000   -5.38960    4.17250    0.19160    0    0    0
     136        1        5  0.08000000   -5.09890    4.17160   -0.86040    0    0    0
     137        1        2 -0.16000000   -4.24300    3.59520    1.03200    0    0    0
     138        1        5  0.08000000   -4.11090    2.54220    0.77730    0    0    0
     139        1        5  0.08000000   -4.48970    3.67650    2.09230    0    0    0
     140        1        2 -0.16000000   -2.93500    4.34310    0.74310    0    0    0
     141        1        5  0.08000000   -2.69670    4.23410   -0.31710    0    0    0
     142        1        2 -0.16000000   -1.78430    3.77060    1.58140    0    0    0
     143        1        5  0.08000000   -1.78420    2.68670    1.48420    0    0    0
     144        1        5  0.08000000   -1.94190    4.02030    2.63200    0    0    0
     145        1        2 -0.16000000   -0.44160    4.35320    1.10340    0    0    0
     146        1        5  0.08000000   -0.33170    4.18970    0.03020    0    0    0
     147        1        2 -0.08000000    0.80110    3.78070    1.84300    0    0    0
     148        1        5  0.08000000    0.47610    3.47120    2.83530    0    0    0
     149        1        2 -0.24000000    1.80460    4.95330    1.99850    0    0    0
     150        1        5  0.08000000    2.02680    5.39450    1.02510    0    0    0
     151        1        5  0.08000000    2.73860    4.62350    2.45060    0    0    0
     152        1        5  0.08000000    1.37820    5.72700    2.63770    0    0    0
     153        1        5  0.08000000   -0.49500    5.43270    1.24540    0    0    0
     154        1        5  0.08000000   -3.05550    5.40500    0.96730    0    0    0
     155        1        5  0.08000000   -5.57280    5.20470    0.49550    0    0    0
     156        1        5  0.08000000   -6.54010    2.36350    0.00120    0    0    0
     157        1        5  0.08000000   -6.96290    3.31450    1.37270    0    0    0
     158        1        5  0.08000000   -9.18590    3.24060    1.78810    0    0    0
     159        1        5  0.08000000  -11.15950    3.21000    3.36580    0    0    0
     160        1        5  0.08000000  -13.15090    4.29410    4.32060    0    0    0
     161        1        5  0.08000000  -13.21490    5.43340    2.97380    0    0    0
     162        1        5  0.08000000  -15.36380    3.27970    3.96970    0    0    0
     163        1        6 -0.90000000  -17.79430    1.78290    3.63420    0    0    0
     164        1        6 -0.90000000  -18.44700    3.14800    1.99570    0    0    0


Bonds

       1        1        1        2 
       2        2        1        5 
       3        2        1       13 
       4        3        2        3 
       5        1        2       21 
       6        4        2       95 
       7        5        3        4 
       8        6        5        6 
       9        2        5        7 
      10        6        7        8 
      11        2        7        9 
      12        6        9       10 
      13        2        9       11 
      14        6       11       12 
      15        2       11       13 
      16        6       13       14 
      17        7       15       16 
      18        2       15       17 
      19        2       15       24 
      20        7       16       32 
      21        6       17       18 
      22        2       17       19 
      23        6       19       20 
      24        2       19       21 
      25        2       21       22 
      26        6       22       23 
      27        2       22       24 
      28        6       24       25 
      29        7       26       27 
      30        2       26       28 
      31        2       26       35 
      32        7       27       45 
      33        6       28       29 
      34        2       28       30 
      35        6       30       31 
      36        2       30       32 
      37        2       32       33 
      38        6       33       34 
      39        2       33       35 
      40        6       35       36 
      41        1       37       38 
      42        2       37       41 
      43        2       37       48 
      44        3       38       39 
      45        1       38       56 
      46        4       38      147 
      47        5       39       40 
      48        6       41       42 
      49        2       41       43 
      50        6       43       44 
      51        2       43       45 
      52        2       45       46 
      53        6       46       47 
      54        2       46       48 
      55        6       48       49 
      56        6       50       51 
      57        2       50       52 
      58        2       50       59 
      59        6       52       53 
      60        2       52       54 
      61        6       54       55 
      62        2       54       56 
      63        2       56       57 
      64        6       57       58 
      65        2       57       59 
      66        6       59       60 
      67        1       61       62 
      68        8       61      111 
      69        8       61      112 
      70        9       62       63 
      71        9       62       64 
      72        4       62       65 
      73        9       65       66 
      74        4       65       67 
      75        9       65      110 
      76        9       67       68 
      77        9       67       69 
      78        4       67       70 
      79        4       70       71 
      80        9       70      108 
      81        9       70      109 
      82        9       71       72 
      83        4       71       73 
      84        9       71      107 
      85        9       73       74 
      86        9       73       75 
      87        4       73       76 
      88        9       76       77 
      89        1       76       78 
      90        9       76      106 
      91        6       78       79 
      92        2       78       80 
      93        6       80       81 
      94        1       80       82 
      95        4       82       83 
      96        9       82      104 
      97        9       82      105 
      98        9       83       84 
      99        4       83       85 
     100        9       83      103 
     101        9       85       86 
     102        9       85       87 
     103        4       85       88 
     104        9       88       89 
     105        4       88       90 
     106        9       88      102 
     107        9       90       91 
     108        9       90       92 
     109        4       90       93 
     110        9       93       94 
     111        4       93       95 
     112        9       93      101 
     113        9       95       96 
     114        4       95       97 
     115        9       97       98 
     116        9       97       99 
     117        9       97      100 
     118        1      113      114 
     119        8      113      163 
     120        8      113      164 
     121        9      114      115 
     122        9      114      116 
     123        4      114      117 
     124        9      117      118 
     125        4      117      119 
     126        9      117      162 
     127        9      119      120 
     128        9      119      121 
     129        4      119      122 
     130        4      122      123 
     131        9      122      160 
     132        9      122      161 
     133        9      123      124 
     134        4      123      125 
     135        9      123      159 
     136        9      125      126 
     137        9      125      127 
     138        4      125      128 
     139        9      128      129 
     140        1      128      130 
     141        9      128      158 
     142        6      130      131 
     143        2      130      132 
     144        6      132      133 
     145        1      132      134 
     146        4      134      135 
     147        9      134      156 
     148        9      134      157 
     149        9      135      136 
     150        4      135      137 
     151        9      135      155 
     152        9      137      138 
     153        9      137      139 
     154        4      137      140 
     155        9      140      141 
     156        4      140      142 
     157        9      140      154 
     158        9      142      143 
     159        9      142      144 
     160        4      142      145 
     161        9      145      146 
     162        4      145      147 
     163        9      145      153 
     164        9      147      148 
     165        4      147      149 
     166        9      149      150 
     167        9      149      151 
     168        9      149      152 

Angles

       1        1        1       13       11 
       2        1        2        1       13 
       3        1        2       21       19 
       4        2        3        2        1 
       5        2        3        2       21 
       6        3        4        3        2 
       7        1        5        1        2 
       8        1        5        1       13 
       9        1        6        5        1 
      10        1        7        5        1 
      11        1        7        5        6 
      12        1        7        9       10 
      13        1        7        9       11 
      14        1        8        7        5 
      15        1        9        7        5 
      16        1        9        7        8 
      17        1        9       11       12 
      18        1        9       11       13 
      19        1       11        9       10 
      20        1       13       11       12 
      21        1       14       13        1 
      22        1       14       13       11 
      23        1       17       15       16 
      24        1       18       17       15 
      25        1       19       17       15 
      26        1       19       17       18 
      27        1       20       19       17 
      28        2       21        2        1 
      29        1       21       19       17 
      30        1       21       19       20 
      31        1       22       21        2 
      32        1       22       21       19 
      33        1       22       24       15 
      34        1       23       22       21 
      35        1       24       15       16 
      36        1       24       15       17 
      37        1       24       22       21 
      38        1       24       22       23 
      39        1       25       24       15 
      40        1       25       24       22 
      41        1       28       26       27 
      42        1       29       28       26 
      43        1       30       28       26 
      44        1       30       28       29 
      45        1       30       32       16 
      46        1       31       30       28 
      47        3       32       16       15 
      48        1       32       30       28 
      49        1       32       30       31 
      50        1       33       32       16 
      51        1       33       32       30 
      52        1       33       35       26 
      53        1       34       33       32 
      54        1       35       26       27 
      55        1       35       26       28 
      56        1       35       33       32 
      57        1       35       33       34 
      58        1       36       35       26 
      59        1       36       35       33 
      60        2       37       38      147 
      61        2       38      147      145 
      62        2       38      147      148 
      63        2       38      147      149 
      64        2       39       38       37 
      65        2       39       38      147 
      66        3       40       39       38 
      67        1       41       37       38 
      68        1       42       41       37 
      69        1       43       41       37 
      70        1       43       41       42 
      71        1       43       45       27 
      72        1       44       43       41 
      73        3       45       27       26 
      74        1       45       43       41 
      75        1       45       43       44 
      76        1       46       45       27 
      77        1       46       45       43 
      78        1       46       48       37 
      79        1       47       46       45 
      80        1       48       37       38 
      81        1       48       37       41 
      82        1       48       46       45 
      83        1       48       46       47 
      84        1       49       48       37 
      85        1       49       48       46 
      86        1       52       50       51 
      87        1       53       52       50 
      88        1       54       52       50 
      89        1       54       52       53 
      90        1       54       56       38 
      91        1       55       54       52 
      92        2       56       38       37 
      93        2       56       38       39 
      94        2       56       38      147 
      95        1       56       54       52 
      96        1       56       54       55 
      97        1       57       56       38 
      98        1       57       56       54 
      99        1       57       59       50 
     100        1       58       57       56 
     101        1       59       50       51 
     102        1       59       50       52 
     103        1       59       57       56 
     104        1       59       57       58 
     105        1       60       59       50 
     106        1       60       59       57 
     107        1       62       61      111 
     108        1       62       61      112 
     109        2       62       65      110 
     110        2       63       62       61 
     111        2       64       62       61 
     112        2       64       62       63 
     113        2       65       62       61 
     114        2       65       62       63 
     115        2       65       62       64 
     116        2       66       65       62 
     117        2       66       65      110 
     118        2       67       65       62 
     119        2       67       65       66 
     120        2       67       65      110 
     121        2       67       70      108 
     122        2       67       70      109 
     123        2       68       67       65 
     124        2       69       67       65 
     125        2       69       67       68 
     126        2       70       67       65 
     127        2       70       67       68 
     128        2       70       67       69 
     129        2       70       71      107 
     130        2       71       70       67 
     131        2       71       70      108 
     132        2       71       70      109 
     133        2       72       71       70 
     134        2       72       71      107 
     135        2       73       71       70 
     136        2       73       71       72 
     137        2       73       71      107 
     138        2       73       76      106 
     139        2       74       73       71 
     140        2       75       73       71 
     141        2       75       73       74 
     142        2       76       73       71 
     143        2       76       73       74 
     144        2       76       73       75 
     145        2       77       76       73 
     146        2       77       76      106 
     147        2       78       76       73 
     148        2       78       76       77 
     149        2       78       76      106 
     150        1       79       78       76 
     151        1       80       78       76 
     152        1       80       78       79 
     153        2       80       82      104 
     154        2       80       82      105 
     155        1       81       80       78 
     156        1       82       80       78 
     157        1       82       80       81 
     158        2       82       83      103 
     159        2       83       82       80 
     160        2       83       82      104 
     161        2       83       82      105 
     162        2       84       83       82 
     163        2       84       83      103 
     164        2       85       83       82 
     165        2       85       83       84 
     166        2       85       83      103 
     167        2       85       88      102 
     168        2       86       85       83 
     169        2       87       85       83 