ITEM: TIMESTEP
0
ITEM: NUMBER OF ATOMS
122
ITEM: BOX BOUNDS pp pp pp
0.0000000000000000e+00 5.0000000000000000e+01
0.0000000000000000e+00 5.0000000000000000e+01
0.0000000000000000e+00 5.0000000000000000e+01
ITEM: ATOMS id type xu yu zu vx vy vz
70 2 0.895394 0.867982 4.88954 0 0 0
84 3 3.47818 0.824899 0.239012 0 0 0
87 3 4.53605 1.08424 1.27999 0 0 0
88 4 1.58029 0.0990422 4.44272 0 0 0
114 5 2.454 0.848053 0.822552 0 0 0
119 5 4.39584 2.0356 1.73303 0 0 0
120 5 5.50549 1.00321 0.756895 0 0 0
121 5 4.53091 0.360004 2.07085 0 0 0
122 6 3.09736 0.514234 5.71792 0 0 0
107 5 -0.180989 0.276294 2.35551 0 0 0
69 1 2.92945 -0.109998 4.96816 0 0 0
86 3 1.33163 -0.931748 3.39599 0 0 0
98 5 0.37114 -1.59657 0.896901 0 0 0
117 5 2.03889 -0.7668 2.54009 0 0 0
118 5 1.40996 -1.88892 3.70855 0 0 0
73 3 -1.72446 -1.5918 0.988788 0 0 0
75 3 -0.351319 -1.71166 1.62134 0 0 0
80 3 -0.087461 -0.730728 2.79953 0 0 0
90 5 -2.05023 -3.61435 0.411594 0 0 0
92 5 -4.22416 -2.65241 0.190923 0 0 0
93 5 -2.54761 -1.68361 1.80975 0 0 0
94 5 -1.81799 -0.584777 0.544764 0 0 0
97 5 -0.211839 -2.79984 2.02928 0 0 0
108 5 -0.80992 -0.845823 3.52397 0 0 0
1 1 17.2141 24.5381 16.1608 0 0 0
2 1 18.6363 24.8019 15.7161 0 0 0
33 6 16.766 23.8134 15.5574 0 0 0
34 6 18.8644 24.205 14.8548 0 0 0
36 6 20.4007 24.0535 16.5975 0 0 0
32 6 16.5843 25.4334 16.1166 0 0 0
35 6 18.7374 25.8828 15.3536 0 0 0
68 6 16.6 23.2978 17.8912 0 0 0
3 1 19.4884 24.5203 16.88 0 0 0
4 2 18.7132 23.5711 17.7506 0 0 0
5 3 19.1408 23.6214 19.0133 0 0 0
6 3 18.2234 23.364 20.0867 0 0 0
7 3 18.6511 23.4143 21.3494 0 0 0
8 3 20.0026 23.5332 21.6947 0 0 0
9 3 20.4455 23.5337 23.0889 0 0 0
10 4 19.8126 22.9284 23.9213 0 0 0
11 3 21.7315 24.232 23.4332 0 0 0
27 3 23.5743 24.5981 24.9564 0 0 0
28 3 22.413 23.9657 24.6227 0 0 0
29 3 20.9201 23.7906 20.6213 0 0 0
30 3 20.4924 23.7403 19.3586 0 0 0
31 1 17.3353 24.0709 17.643 0 0 0
38 6 17.2283 23.1647 19.8218 0 0 0
39 6 17.9898 23.1682 22.1692 0 0 0
65 6 21.9152 23.9899 20.8861 0 0 0
66 6 21.1537 23.9864 18.5388 0 0 0
67 6 17.1555 24.9145 18.2879 0 0 0
12 3 22.1743 25.3508 22.5893 0 0 0
13 3 23.3356 25.9832 22.9231 0 0 0
14 3 24.0082 25.5779 24.1369 0 0 0
37 6 19.6587 25.4725 17.4496 0 0 0
40 6 21.7178 25.5913 21.7444 0 0 0
41 6 23.7212 26.7162 22.3198 0 0 0
15 5 25.4977 26.4891 24.5385 0 0 0
63 6 24.1466 24.2845 25.8363 0 0 0
64 6 22.0186 23.0936 25.2503 0 0 0
43 6 26.1743 24.5312 25.9237 0 0 0
47 6 27.9052 24.4536 27.7479 0 0 0
51 6 29.6361 24.3761 29.5722 0 0 0
55 6 31.297 24.2905 31.3255 0 0 0
59 6 33.0279 24.213 33.1498 0 0 0
16 1 26.0037 25.5823 26.1138 0 0 0
17 1 27.3049 26.2307 26.5896 0 0 0
18 1 27.7346 25.5047 27.938 0 0 0
19 1 29.0358 26.1531 28.4139 0 0 0
20 1 29.4655 25.4272 29.7623 0 0 0
21 1 30.7667 26.0756 30.2381 0 0 0
22 1 31.1964 25.3496 31.5866 0 0 0
23 1 32.4976 25.9981 32.0624 0 0 0
42 6 25.2441 25.6874 26.8499 0 0 0
44 6 28.0645 26.1256 25.8534 0 0 0
45 6 27.1343 27.2818 26.7797 0 0 0
46 6 26.975 25.6098 28.6742 0 0 0
48 6 29.7954 26.0481 27.6777 0 0 0
49 6 28.8652 27.2042 28.604 0 0 0
50 6 28.7059 25.5323 30.4985 0 0 0
52 6 31.5263 25.9705 29.502 0 0 0
53 6 30.5961 27.1267 30.4282 0 0 0
54 6 30.3668 25.4467 32.2517 0 0 0
56 6 33.2572 25.893 31.3263 0 0 0
57 6 32.327 27.0491 32.2525 0 0 0
60 6 34.9881 25.8154 33.1505 0 0 0
24 1 32.8573 25.2641 33.3399 0 0 0
58 6 32.0977 25.3692 34.076 0 0 0
25 1 34.2285 25.9205 33.8867 0 0 0
26 5 34.6186 25.0868 35.4271 0 0 0
61 6 34.0579 26.9716 34.0768 0 0 0
62 7 35.7799 25.7192 35.7609 0 0 0
76 3 0.931296 1.79437 -1.30486 0 0 0
77 3 2.28795 1.60167 -1.91506 0 0 0
81 3 3.34583 1.86101 -0.874077 0 0 0
99 5 0.791082 2.74574 -0.851818 0 0 0
100 5 0.731527 0.996221 -0.595598 0 0 0
101 5 2.41778 2.3918 -2.69534 0 0 0
102 5 2.42817 0.650301 -2.36809 0 0 0
109 5 3.3303 2.87827 -0.410461 0 0 0
110 5 4.43995 1.84587 -1.3866 0 0 0
78 3 -0.187729 1.66604 -2.44122 0 0 0
82 3 -1.62312 1.7117 -1.87768 0 0 0
83 4 -3.18616 0.341846 -3.28139 0 0 0
85 4 -2.62625 1.51023 -2.9791 0 0 0
103 5 -0.0427042 2.40632 -3.09003 0 0 0
104 5 -0.00156241 0.633521 -2.93034 0 0 0
111 5 -1.72896 1.01074 -0.990291 0 0 0
112 5 -1.76333 2.66306 -1.42464 0 0 0
113 5 -4.00145 0.334775 -4.02655 0 0 0
116 5 -2.96915 2.38546 -3.44428 0 0 0
115 5 3.56365 -0.184341 -0.153582 0 0 0
71 3 -2.0978 -2.68849 -0.0685168 0 0 0
72 3 -3.5169 -2.48747 -0.66498 0 0 0
74 3 -3.80266 -1.22645 -1.37079 0 0 0
79 3 -2.9004 -0.919174 -2.57558 0 0 0
89 5 -1.37535 -2.57339 -0.792952 0 0 0
91 5 -3.63245 -3.38174 -1.295 0 0 0
95 5 -3.74185 -0.390048 -0.680324 0 0 0
96 5 -4.85888 -1.29468 -1.73098 0 0 0
105 5 -2.96121 -1.75557 -3.26605 0 0 0
106 5 -1.79823 -0.932091 -2.25148 0 0 0
ITEM: TIMESTEP
25
ITEM: NUMBER OF ATOMS
122
ITEM: BOX BOUNDS pp pp pp
0.0000000000000000e+00 5.0000000000000000e+01
0.0000000000000000e+00 5.0000000000000000e+01
0.0000000000000000e+00 5.0000000000000000e+01
ITEM: ATOMS id type xu yu zu vx vy vz
70 2 1.20082 1.12627 5.23577 0 0 0
84 3 3.91963 1.07428 0.41403 0 0 0
87 3 5.11981 1.17507 1.42251 0 0 0
88 4 1.85804 0.142777 4.82397 0 0 0
114 5 3.15085 1.3609 1.11333 0 0 0
119 5 4.93358 1.94103 2.18302 0 0 0
120 5 6.15528 1.23318 1.06638 0 0 0
121 5 5.09202 0.238598 1.97136 0 0 0
122 6 3.4741 0.765395 5.88336 0 0 0
107 5 0.202128 0.0965446 2.65692 0 0 0
69 1 3.12932 0.0720808 5.28477 0 0 0
86 3 1.42749 -1.02129 3.99321 0 0 0
98 5 0.325093 -1.70107 1.04831 0 0 0
117 5 2.35869 -1.27086 3.48357 0 0 0
118 5 1.28438 -1.77932 4.76726 0 0 0
73 3 -1.81205 -1.93144 1.1002 0 0 0
75 3 -0.355897 -1.94879 1.86843 0 0 0
80 3 0.115865 -0.913331 3.07773 0 0 0
90 5 -2.86683 -3.84292 0.737903 0 0 0
92 5 -4.70694 -2.93763 -0.224752 0 0 0
93 5 -2.62914 -1.74406 1.80054 0 0 0
94 5 -1.71837 -1.08538 0.458434 0 0 0
97 5 -0.106595 -2.97835 2.15581 0 0 0
108 5 -0.598412 -0.882058 3.90078 0 0 0
1 1 17.1473 24.5752 16.1015 0 0 0
2 1 18.5709 24.8506 15.6343 0 0 0
33 6 16.7112 23.7803 15.4975 0 0 0
34 6 18.8292 24.1823 14.8134 0 0 0
36 6 20.3711 24.1046 16.5059 0 0 0
32 6 16.5396 25.4779 16.0486 0 0 0
35 6 18.6942 25.8923 15.3335 0 0 0
68 6 16.5561 23.3441 17.7621 0 0 0
3 1 19.4343 24.5398 16.8514 0 0 0
4 2 18.6666 23.5934 17.6841 0 0 0
5 3 19.1186 23.5471 19.0251 0 0 0
6 3 18.266 23.3032 20.1117 0 0 0
7 3 18.7249 23.3143 21.4198 0 0 0
8 3 20.0653 23.5582 21.702 0 0 0
9 3 20.5139 23.6304 23.0216 0 0 0
10 4 19.8545 23.0372 23.8969 0 0 0
11 3 21.6736 24.3153 23.4241 0 0 0
27 3 23.5008 24.5287 24.9846 0 0 0
28 3 22.3206 23.9182 24.5828 0 0 0
29 3 20.9353 23.6542 20.6188 0 0 0
30 3 20.4786 23.6699 19.3204 0 0 0
31 1 17.2964 24.1161 17.5527 0 0 0
38 6 17.2747 23.1111 19.9791 0 0 0
39 6 18.0545 23.1649 22.1751 0 0 0
65 6 21.9431 23.6947 20.7608 0 0 0
66 6 21.1885 23.7639 18.5985 0 0 0
67 6 17.1514 24.9766 18.2062 0 0 0
12 3 22.193 25.4088 22.727 0 0 0
13 3 23.3887 25.9994 23.1114 0 0 0
14 3 24.0633 25.567 24.24 0 0 0
37 6 19.6181 25.4681 17.3964 0 0 0
40 6 21.7053 25.8098 21.9304 0 0 0
41 6 23.7671 26.7638 22.5535 0 0 0
15 5 25.5476 26.4179 24.5734 0 0 0
63 6 23.9237 24.1648 25.8312 0 0 0
64 6 21.9652 23.1465 25.1483 0 0 0
43 6 26.2304 24.5575 25.9148 0 0 0
47 6 27.9081 24.4762 27.7012 0 0 0
51 6 29.6233 24.3848 29.5267 0 0 0
55 6 31.352 24.3084 31.3411 0 0 0
59 6 33.0684 24.2246 33.1625 0 0 0
16 1 26.0504 25.6155 26.1024 0 0 0
17 1 27.3407 26.248 26.6107 0 0 0
18 1 27.7508 25.5351 27.9046 0 0 0
19 1 29.0441 26.1516 28.4343 0 0 0
20 1 29.4635 25.443 29.7289 0 0 0
21 1 30.7598 26.0679 30.2496 0 0 0
22 1 31.1896 25.3665 31.5429 0 0 0
23 1 32.4873 25.9907 32.0702 0 0 0
42 6 25.2777 25.7531 26.8573 0 0 0
44 6 28.1202 26.1332 25.8586 0 0 0
45 6 27.1695 27.3059 26.8067 0 0 0
46 6 26.9613 25.6478 28.6474 0 0 0
48 6 29.8288 26.0379 27.6879 0 0 0
49 6 28.8821 27.2094 28.6357 0 0 0
50 6 28.6774 25.5565 30.4743 0 0 0
52 6 31.5421 25.956 29.5 0 0 0
53 6 30.5958 27.1261 30.4492 0 0 0
54 6 30.4042 25.4769 32.2893 0 0 0
56 6 33.2745 25.8786 31.3246 0 0 0
57 6 32.3252 27.0494 32.2713 0 0 0
60 6 35.0059 25.7625 33.2014 0 0 0
24 1 32.9038 25.2828 33.3635 0 0 0
58 6 32.115 25.3903 34.1077 0 0 0
25 1 34.1961 25.8892 33.9195 0 0 0
26 5 34.615 25.0386 35.448 0 0 0
61 6 34.0523 26.9499 34.1256 0 0 0
62 7 35.7316 25.7955 35.6178 0 0 0
76 3 0.93041 1.86709 -1.60927 0 0 0
77 3 2.51761 1.83991 -1.98889 0 0 0
81 3 3.75098 1.87737 -0.972659 0 0 0
99 5 0.836402 2.58538 -0.791498 0 0 0
100 5 0.79574 0.857416 -1.24503 0 0 0
101 5 2.82211 2.71082 -2.58461 0 0 0
102 5 2.73942 0.984535 -2.64428 0 0 0
109 5 4.04091 2.93548 -0.868747 0 0 0
110 5 4.49132 1.47781 -1.67101 0 0 0
78 3 -0.352004 2.09721 -2.59361 0 0 0
82 3 -1.89779 2.16531 -2.12957 0 0 0
83 4 -3.43998 0.398295 -3.43127 0 0 0
85 4 -2.95709 1.66681 -3.06454 0 0 0
103 5 -0.261989 3.07522 -3.07183 0 0 0
104 5 -0.314652 1.38757 -3.42499 0 0 0
111 5 -2.23362 1.88709 -1.11947 0 0 0
112 5 -2.12161 3.23952 -2.16841 0 0 0
113 5 -4.03526 0.490334 -4.26758 0 0 0
116 5 -3.51792 2.41032 -3.50617 0 0 0
115 5 3.84549 -0.0050355 0.254819 0 0 0
71 3 -2.4754 -3.03941 0.111371 0 0 0
72 3 -3.77522 -2.79143 -0.790595 0 0 0
74 3 -4.11945 -1.54692 -1.72005 0 0 0
79 3 -3.24685 -1.01039 -2.9432 0 0 0
89 5 -1.78049 -3.54573 -0.575107 0 0 0
91 5 -3.81562 -3.72402 -1.3668 0 0 0
95 5 -4.53127 -0.737575 -1.10924 0 0 0
96 5 -5.03096 -1.92946 -2.18323 0 0 0
105 5 -3.62681 -1.54601 -3.8132 0 0 0
106 5 -2.18925 -1.26713 -2.93418 0 0 0
ITEM: TIMESTEP
50
ITEM: NUMBER OF ATOMS
122
ITEM: BOX BOUNDS pp pp pp
0.0000000000000000e+00 5.0000000000000000e+01
0.0000000000000000e+00 5.0000000000000000e+01
0.0000000000000000e+00 5.0000000000000000e+01
ITEM: ATOMS id type xu yu zu vx vy vz
70 2 1.23353 0.77917 5.60123 0 0 0
84 3 3.87 1.09432 0.37427 0 0 0
87 3 5.15243 1.18475 1.28051 0 0 0
88 4 1.89649 0.00657771 4.86503 0 0 0
114 5 3.1527 1.44147 1.10719 0 0 0
119 5 5.11781 2.05722 1.94388 0 0 0
120 5 6.15653 1.07699 0.850517 0 0 0
121 5 5.07042 0.32969 1.9479 0 0 0
122 6 3.70024 0.829946 5.39428 0 0 0
107 5 0.263507 0.0399079 2.79378 0 0 0
69 1 3.2422 0.147412 4.85374 0 0 0
86 3 1.36145 -1.17907 4.15053 0 0 0
98 5 0.32118 -2.00291 1.29575 0 0 0
117 5 2.287 -1.54502 3.67911 0 0 0
118 5 1.13234 -1.83427 4.99521 0 0 0
73 3 -1.80258 -1.78855 1.10058 0 0 0
75 3 -0.474147 -1.98021 2.05008 0 0 0
80 3 0.0733928 -0.955112 3.21047 0 0 0
90 5 -3.10511 -3.60324 0.905414 0 0 0
92 5 -4.63744 -2.92175 -0.329139 0 0 0
93 5 -2.61436 -1.23112 1.58294 0 0 0
94 5 -1.41757 -1.13147 0.349401 0 0 0
97 5 -0.513068 -2.95962 2.53845 0 0 0
108 5 -0.685465 -0.881906 3.99659 0 0 0
1 1 17.0711 24.5554 16.0632 0 0 0
2 1 18.4842 24.8524 15.5814 0 0 0
33 6 16.6396 23.7511 15.4687 0 0 0
34 6 18.7361 24.1999 14.746 0 0 0
36 6 20.3115 24.1334 16.4298 0 0 0
32 6 16.4467 25.448 16.0176 0 0 0
35 6 18.5905 25.8998 15.2958 0 0 0
68 6 16.4968 23.3677 17.7573 0 0 0
3 1 19.363 24.5296 16.7889 0 0 0
4 2 18.6205 23.5478 17.6034 0 0 0
5 3 19.0985 23.4903 18.9386 0 0 0
6 3 18.2478 23.3104 20.0382 0 0 0
7 3 18.7259 23.3469 21.3412 0 0 0
8 3 20.0704 23.5703 21.6113 0 0 0
9 3 20.5059 23.658 22.9404 0 0 0
10 4 19.7974 23.1056 23.8094 0 0 0
11 3 21.6632 24.3144 23.3855 0 0 0
27 3 23.4368 24.5191 25.0277 0 0 0
28 3 22.2685 23.9139 24.5735 0 0 0
29 3 20.9363 23.6192 20.5214 0 0 0
30 3 20.4624 23.5578 19.2186 0 0 0
31 1 17.2597 24.1056 17.5104 0 0 0
38 6 17.2517 23.1494 19.9251 0 0 0
39 6 18.0527 23.236 22.0989 0 0 0
65 6 21.9436 23.6695 20.6608 0 0 0
66 6 21.1584 23.5628 18.4751 0 0 0
67 6 17.1694 24.9821 18.1541 0 0 0
12 3 22.2101 25.4052 22.7133 0 0 0
13 3 23.3616 26.0198 23.1744 0 0 0
14 3 24.0089 25.5777 24.3214 0 0 0
37 6 19.5226 25.4445 17.3613 0 0 0
40 6 21.7556 25.791 21.8858 0 0 0
41 6 23.7458 26.814 22.6648 0 0 0
15 5 25.4719 26.4376 24.7144 0 0 0
63 6 23.851 24.155 25.8799 0 0 0
64 6 21.8835 23.1428 25.119 0 0 0
43 6 26.2191 24.5425 25.9893 0 0 0
47 6 28.0021 24.5065 27.7532 0 0 0
51 6 29.6904 24.429 29.5349 0 0 0
55 6 31.373 24.3009 31.3696 0 0 0
59 6 33.0914 24.2045 33.2267 0 0 0
16 1 26.045 25.598 26.1999 0 0 0
17 1 27.3631 26.2374 26.6475 0 0 0
18 1 27.8297 25.5659 27.9416 0 0 0
19 1 29.127 26.2024 28.4493 0 0 0
20 1 29.5347 25.4875 29.7404 0 0 0
21 1 30.8296 26.0885 30.2918 0 0 0
22 1 31.218 25.3587 31.5804 0 0 0
23 1 32.5133 25.9674 32.1274 0 0 0
42 6 25.3057 25.7125 26.9928 0 0 0
44 6 28.1137 26.0992 25.8686 0 0 0
45 6 27.207 27.3028 26.818 0 0 0
46 6 27.0589 25.6777 28.7037 0 0 0
48 6 29.9101 26.0892 27.6993 0 0 0
49 6 28.9616 27.2612 28.6502 0 0 0
50 6 28.7442 25.601 30.482 0 0 0
52 6 31.6238 25.9748 29.5543 0 0 0
53 6 30.6755 27.1458 30.5038 0 0 0
54 6 30.4231 25.4691 32.3177 0 0 0
56 6 33.304 25.8536 31.3871 0 0 0
57 6 32.3552 27.0258 32.3291 0 0 0
60 6 35.02 25.7657 33.2201 0 0 0
24 1 32.9279 25.2639 33.4209 0 0 0
58 6 32.1435 25.378 34.1687 0 0 0
25 1 34.2231 25.8828 33.9542 0 0 0
26 5 34.6895 25.0462 35.4763 0 0 0
61 6 34.07 26.9423 34.1585 0 0 0
62 7 35.787 25.8351 35.6258 0 0 0
76 3 0.839756 1.84714 -1.56065 0 0 0
77 3 2.40368 1.87045 -1.98051 0 0 0
81 3 3.67738 1.82856 -1.0461 0 0 0
99 5 0.736341 2.48267 -0.675911 0 0 0
100 5 0.715845 0.802825 -1.29361 0 0 0
101 5 2.69417 2.78895 -2.50303 0 0 0
102 5 2.61722 1.05146 -2.68451 0 0 0
109 5 4.02239 2.87524 -1.02764 0 0 0
110 5 4.34193 1.32921 -1.75695 0 0 0
78 3 -0.427377 2.24266 -2.51027 0 0 0
82 3 -1.98461 2.17227 -2.13409 0 0 0
83 4 -3.33128 0.33337 -3.52736 0 0 0
85 4 -2.95313 1.63763 -3.14096 0 0 0
103 5 -0.389247 3.32494 -2.66937 0 0 0
104 5 -0.341251 1.7901 -3.5029 0 0 0
111 5 -2.33389 1.89374 -1.13274 0 0 0
112 5 -2.26055 3.22895 -2.16552 0 0 0
113 5 -3.90623 0.365156 -4.38457 0 0 0
116 5 -3.52905 2.33832 -3.63914 0 0 0
115 5 3.72757 0.0142494 0.263492 0 0 0
71 3 -2.53468 -2.94986 0.230505 0 0 0
72 3 -3.67785 -2.77133 -0.83513 0 0 0
74 3 -3.97549 -1.58124 -1.83049 0 0 0
79 3 -3.02393 -1.02337 -2.97879 0 0 0
89 5 -1.86787 -3.59987 -0.352481 0 0 0
91 5 -3.6121 -3.71388 -1.39401 0 0 0
95 5 -4.43791 -0.770212 -1.26397 0 0 0
96 5 -4.82534 -2.02446 -2.35567 0 0 0
105 5 -3.18582 -1.63226 -3.86793 0 0 0
106 5 -1.9602 -1.12462 -2.8174 0 0 0
ITEM: TIMESTEP
75
ITEM: NUMBER OF ATOMS
122
ITEM: BOX BOUNDS pp pp pp
0.0000000000000000e+00 5.0000000000000000e+01
0.0000000000000000e+00 5.0000000000000000e+01
0.0000000000000000e+00 5.0000000000000000e+01
ITEM: ATOMS id type xu yu zu vx vy vz
70 2 1.26532 0.53969 5.85339 0 0 0
84 3 3.82567 1.07099 0.30791 0 0 0
87 3 5.14749 1.06525 1.15887 0 0 0
88 4 1.83643 -0.0752419 4.92414 0 0 0
114 5 3.1562 1.46567 1.06612 0 0 0
119 5 5.23965 1.94636 1.80464 0 0 0
120 5 6.11205 0.849349 0.682555 0 0 0
121 5 5.00589 0.231243 1.84123 0 0 0
122 6 3.43863 1.17427 4.95225 0 0 0
107 5 0.321217 -0.058157 2.90809 0 0 0
69 1 3.05948 0.365316 4.54943 0 0 0
86 3 1.30421 -1.31483 4.32098 0 0 0
98 5 0.360754 -1.97378 1.38093 0 0 0
117 5 2.225 -1.77859 3.93604 0 0 0
118 5 0.981003 -1.88884 5.1979 0 0 0
73 3 -1.75705 -1.78083 1.15442 0 0 0
75 3 -0.448199 -2.02212 2.12303 0 0 0
80 3 0.0782835 -1.04179 3.32354 0 0 0
90 5 -3.14555 -3.50674 0.97753 0 0 0
92 5 -4.60654 -2.7665 -0.333857 0 0 0
93 5 -2.55847 -1.19665 1.62196 0 0 0
94 5 -1.35075 -1.14745 0.393278 0 0 0
97 5 -0.453187 -3.03388 2.55011 0 0 0
108 5 -0.703599 -0.920061 4.07949 0 0 0
1 1 17.0186 24.5214 16.0157 0 0 0
2 1 18.4282 24.8496 15.5413 0 0 0
33 6 16.6088 23.7063 15.42 0 0 0
34 6 18.6917 24.2138 14.696 0 0 0
36 6 20.2526 24.1042 16.3688 0 0 0
32 6 16.3739 25.3984 15.9592 0 0 0
35 6 18.5162 25.9015 15.2695 0 0 0
68 6 16.4682 23.3017 17.6972 0 0 0
3 1 19.3198 24.5294 16.7391 0 0 0
4 2 18.5801 23.5709 17.5822 0 0 0
5 3 19.0623 23.5308 18.9176 0 0 0
6 3 18.2265 23.3471 20.026 0 0 0
7 3 18.7201 23.3619 21.3245 0 0 0
8 3 20.0721 23.5696 21.5823 0 0 0
9 3 20.53 23.64 22.9055 0 0 0
10 4 19.8292 23.0792 23.7757 0 0 0
11 3 21.6894 24.2962 23.3513 0 0 0
27 3 23.3936 24.5687 25.061 0 0 0
28 3 22.2567 23.9329 24.571 0 0 0
29 3 20.9211 23.6306 20.4799 0 0 0
30 3 20.4309 23.6053 19.1838 0 0 0
31 1 17.2001 24.0761 17.4663 0 0 0
38 6 17.2257 23.1946 19.9202 0 0 0
39 6 18.0578 23.244 22.0915 0 0 0
65 6 21.9308 23.6644 20.6053 0 0 0
66 6 21.1177 23.6356 18.4342 0 0 0
67 6 17.0561 24.9452 18.1098 0 0 0
12 3 22.2736 25.3598 22.6624 0 0 0
13 3 23.4102 25.9894 23.145 0 0 0
14 3 23.9933 25.604 24.344 0 0 0
37 6 19.5115 25.4508 17.29 0 0 0
40 6 21.8589 25.7241 21.8071 0 0 0
41 6 23.8186 26.7586 22.615 0 0 0
15 5 25.4088 26.5098 24.8033 0 0 0
63 6 23.759 24.249 25.9531 0 0 0
64 6 21.8576 23.1758 25.1259 0 0 0
43 6 26.1867 24.5528 25.962 0 0 0
47 6 27.9882 24.4854 27.773 0 0 0
51 6 29.7311 24.429 29.5634 0 0 0
55 6 31.4282 24.3277 31.3947 0 0 0
59 6 33.1331 24.2109 33.2643 0 0 0
16 1 26.0149 25.5953 26.2317 0 0 0
17 1 27.3368 26.2231 26.6834 0 0 0
18 1 27.8229 25.5448 27.9697 0 0 0
19 1 29.1285 26.1801 28.4652 0 0 0
20 1 29.5701 25.4882 29.7625 0 0 0
21 1 30.8666 26.102 30.3051 0 0 0
22 1 31.2745 25.3865 31.602 0 0 0
23 1 32.5695 25.9845 32.1635 0 0 0
42 6 25.2923 25.666 27.0448 0 0 0
44 6 28.0796 26.0965 25.8954 0 0 0
45 6 27.1801 27.2865 26.8653 0 0 0
46 6 27.0595 25.6521 28.7403 0 0 0
48 6 29.9016 26.0615 27.706 0 0 0
49 6 28.9664 27.2409 28.6562 0 0 0
50 6 28.7843 25.598 30.5095 0 0 0
52 6 31.6583 25.9907 29.5643 0 0 0
53 6 30.7081 27.1607 30.5096 0 0 0
54 6 30.4787 25.4976 32.3387 0 0 0
56 6 33.3666 25.8704 31.4288 0 0 0
57 6 32.4172 27.0439 32.3693 0 0 0
60 6 35.0687 25.7632 33.2809 0 0 0
24 1 32.9734 25.2711 33.4616 0 0 0
58 6 32.1837 25.3844 34.2047 0 0 0
25 1 34.2678 25.878 34.0113 0 0 0
26 5 34.7346 25.036 35.5314 0 0 0
61 6 34.1181 26.9367 34.2232 0 0 0
62 7 35.8401 25.8152 35.678 0 0 0
76 3 0.796062 1.92887 -1.56759 0 0 0
77 3 2.34549 1.88476 -2.0272 0 0 0
81 3 3.62621 1.84129 -1.09511 0 0 0
99 5 0.724748 2.57529 -0.689507 0 0 0
100 5 0.653408 0.89211 -1.29055 0 0 0
101 5 2.65536 2.75754 -2.61464 0 0 0
102 5 2.49613 1.02204 -2.69341 0 0 0
109 5 3.96326 2.88775 -1.03907 0 0 0
110 5 4.28861 1.3845 -1.83824 0 0 0
78 3 -0.475455 2.36935 -2.47614 0 0 0
82 3 -2.0252 2.19041 -2.10679 0 0 0
83 4 -3.15588 0.29099 -3.58939 0 0 0
85 4 -2.93986 1.60315 -3.13169 0 0 0
103 5 -0.455449 3.46434 -2.50309 0 0 0
104 5 -0.38499 2.04147 -3.51878 0 0 0
111 5 -2.36555 1.92437 -1.0964 0 0 0
112 5 -2.35875 3.22774 -2.15053 0 0 0
113 5 -3.61221 0.288886 -4.51558 0 0 0
116 5 -3.58578 2.27286 -3.58817 0 0 0
115 5 3.61091 0.00344535 0.215206 0 0 0
71 3 -2.52957 -2.91325 0.291309 0 0 0
72 3 -3.62517 -2.70545 -0.819593 0 0 0
74 3 -3.84347 -1.54903 -1.86533 0 0 0
79 3 -2.85232 -1.05122 -3.009 0 0 0
89 5 -1.87903 -3.61027 -0.255776 0 0 0
91 5 -3.60055 -3.66853 -1.34095 0 0 0
95 5 -4.32092 -0.722294 -1.34229 0 0 0
96 5 -4.67593 -1.99432 -2.41426 0 0 0
105 5 -3.02087 -1.68768 -3.87992 0 0 0
106 5 -1.78718 -1.1518 -2.82149 0 0 0
ITEM: TIMESTEP
98
ITEM: NUMBER OF ATOMS
122
ITEM: BOX BOUNDS pp pp pp
0.0000000000000000e+00 5.0000000000000000e+01
0.0000000000000000e+00 5.0000000000000000e+01
0.0000000000000000e+00 5.0000000000000000e+01
ITEM: ATOMS id type xu yu zu vx vy vz
70 2 1.12851 0.474813 6.02886 0 0 0
84 3 3.81261 0.939073 0.21444 0 0 0
87 3 5.1439 0.811107 1.04257 0 0 0
88 4 1.70932 0.0300033 5.00715 0 0 0
114 5 3.16241 1.31911 1.00022 0 0 0
119 5 5.31372 1.65443 1.72124 0 0 0
120 5 6.08507 0.558492 0.535616 0 0 0
121 5 4.96293 -0.0392761 1.69863 0 0 0
122 6 3.14758 1.45895 5.07371 0 0 0
107 5 0.00607362 -0.00631274 3.17149 0 0 0
69 1 2.8378 0.656389 4.60378 0 0 0
86 3 1.30945 -1.22246 4.33145 0 0 0
98 5 0.337126 -1.75153 1.38477 0 0 0
117 5 2.26209 -1.50944 3.859 0 0 0
118 5 1.13606 -1.91536 5.16438 0 0 0
73 3 -1.77631 -1.84591 1.2251 0 0 0
75 3 -0.419673 -1.98925 2.1411 0 0 0
80 3 -0.0104279 -1.07187 3.43678 0 0 0
90 5 -2.90985 -3.73353 0.856632 0 0 0
92 5 -4.55521 -2.84293 -0.318114 0 0 0
93 5 -2.62729 -1.45416 1.78888 0 0 0
94 5 -1.47999 -1.06186 0.546975 0 0 0
97 5 -0.271732 -3.02829 2.46011 0 0 0
108 5 -0.742452 -1.21589 4.23948 0 0 0
1 1 16.9546 24.4371 15.9808 0 0 0
2 1 18.3444 24.8412 15.503 0 0 0
33 6 16.6014 23.582 15.4057 0 0 0
34 6 18.6397 24.2187 14.6586 0 0 0
36 6 20.206 24.1858 16.3296 0 0 0
32 6 16.2548 25.2694 15.8987 0 0 0
35 6 18.3763 25.896 15.2295 0 0 0
68 6 16.4579 23.2486 17.6999 0 0 0
3 1 19.2558 24.5701 16.7013 0 0 0
4 2 18.559 23.5858 17.5505 0 0 0
5 3 19.057 23.5537 18.8818 0 0 0
6 3 18.2349 23.3761 20.001 0 0 0
7 3 18.748 23.39 21.293 0 0 0
8 3 20.1047 23.5891 21.5356 0 0 0
9 3 20.5686 23.6585 22.8581 0 0 0
10 4 19.8616 23.0947 23.7215 0 0 0
11 3 21.7222 24.316 23.3237 0 0 0
27 3 23.3428 24.6474 25.1075 0 0 0
28 3 22.2243 24.0051 24.5881 0 0 0
29 3 20.9379 23.6474 20.4199 0 0 0
30 3 20.427 23.6265 19.1296 0 0 0
31 1 17.1611 24.0394 17.4406 0 0 0
38 6 17.2335 23.2268 19.9129 0 0 0
39 6 18.0913 23.2787 22.065 0 0 0
65 6 21.9491 23.6744 20.529 0 0 0
66 6 21.1026 23.6573 18.3692 0 0 0
67 6 16.9963 24.9214 18.0611 0 0 0
12 3 22.3621 25.336 22.6192 0 0 0
13 3 23.4908 25.9642 23.1282 0 0 0
14 3 24.0034 25.6331 24.3721 0 0 0
37 6 19.4083 25.5011 17.2486 0 0 0
40 6 21.9981 25.6737 21.7324 0 0 0
41 6 23.9415 26.697 22.5808 0 0 0
15 5 25.4009 26.5422 24.8766 0 0 0
63 6 23.6497 24.3757 26.0361 0 0 0
64 6 21.7865 23.2863 25.1645 0 0 0
43 6 26.1945 24.5538 25.9718 0 0 0
47 6 27.9696 24.4417 27.8008 0 0 0
51 6 29.7482 24.3749 29.6193 0 0 0
55 6 31.4859 24.3437 31.4285 0 0 0
59 6 33.1743 24.2645 33.2374 0 0 0
16 1 26.0123 25.5849 26.276 0 0 0
17 1 27.3215 26.2147 26.7613 0 0 0
18 1 27.8103 25.4962 28.025 0 0 0
19 1 29.1232 26.1175 28.5147 0 0 0
20 1 29.5768 25.4345 29.8107 0 0 0
21 1 30.8725 26.0805 30.3142 0 0 0
22 1 31.3183 25.4039 31.6163 0 0 0
23 1 32.6127 26.0347 32.142 0 0 0
42 6 25.2889 25.6212 27.0894 0 0 0
44 6 28.0727 26.1346 25.9756 0 0 0
45 6 27.1445 27.2665 26.9859 0 0 0
46 6 27.0546 25.5904 28.8047 0 0 0
48 6 29.8907 25.9899 27.7515 0 0 0
49 6 28.9717 27.1802 28.703 0 0 0
50 6 28.8004 25.5436 30.5681 0 0 0
52 6 31.6518 25.9657 29.5613 0 0 0
53 6 30.7006 27.1404 30.5005 0 0 0
54 6 30.5345 25.5174 32.3648 0 0 0
56 6 33.4033 25.9213 31.4003 0 0 0
57 6 32.4496 27.0938 32.3413 0 0 0
60 6 35.1263 25.7857 33.3114 0 0 0
24 1 33.0183 25.3234 33.4401 0 0 0
58 6 32.2231 25.4346 34.1764 0 0 0
25 1 34.3085 25.9045 34.022 0 0 0
26 5 34.6924 25.004 35.5327 0 0 0
61 6 34.1724 26.9608 34.2537 0 0 0
62 7 35.8216 25.7303 35.7457 0 0 0
76 3 0.803825 2.00474 -1.60016 0 0 0
77 3 2.35574 1.95539 -2.05716 0 0 0
81 3 3.63473 1.80025 -1.13774 0 0 0
99 5 0.753156 2.67016 -0.732794 0 0 0
100 5 0.632147 0.978181 -1.2961 0 0 0
101 5 2.67965 2.87808 -2.55523 0 0 0
102 5 2.50985 1.15496 -2.79549 0 0 0
109 5 4.01989 2.82521 -1.01959 0 0 0
110 5 4.26613 1.3575 -1.91416 0 0 0
78 3 -0.462717 2.45128 -2.51774 0 0 0
82 3 -2.01311 2.2741 -2.15085 0 0 0
83 4 -3.15188 0.302413 -3.54581 0 0 0
85 4 -2.93055 1.6298 -3.13634 0 0 0
103 5 -0.441113 3.54646 -2.55795 0 0 0
104 5 -0.375663 2.12621 -3.56002 0 0 0
111 5 -2.36141 2.06231 -1.13024 0 0 0
112 5 -2.34872 3.30595 -2.26396 0 0 0
113 5 -3.6336 0.286353 -4.45727 0 0 0
116 5 -3.5926 2.27191 -3.60696 0 0 0
115 5 3.55006 -0.109513 0.0550393 0 0 0
71 3 -2.41328 -2.97419 0.24295 0 0 0
72 3 -3.57495 -2.74992 -0.804194 0 0 0
74 3 -3.8033 -1.55909 -1.81493 0 0 0
79 3 -2.8154 -1.0275 -2.94936 0 0 0
89 5 -1.6948 -3.52089 -0.380806 0 0 0
91 5 -3.56005 -3.69642 -1.3565 0 0 0
95 5 -4.25969 -0.734119 -1.26521 0 0 0
96 5 -4.65151 -1.98066 -2.35753 0 0 0
105 5 -2.92666 -1.67452 -3.82182 0 0 0
106 5 -1.7559 -1.06881 -2.72634 0 0 0
ITEM: TIMESTEP
100
ITEM: NUMBER OF ATOMS
122
ITEM: BOX BOUNDS pp pp pp
0.0000000000000000e+00 5.0000000000000000e+01
0.0000000000000000e+00 5.0000000000000000e+01
0.0000000000000000e+00 5.0000000000000000e+01
ITEM: ATOMS id type xu yu zu vx vy vz
70 2 1.12869 0.474057 6.02791 0 0 0
84 3 3.81207 0.938697 0.214829 0 0 0
87 3 5.14342 0.810681 1.04306 0 0 0
88 4 1.70924 0.029002 5.00739 0 0 0
114 5 3.16143 1.31893 0.99957 0 0 0
119 5 5.31323 1.65429 1.72115 0 0 0
120 5 6.08444 0.557819 0.536127 0 0 0
122 6 3.14778 1.45956 5.07353 0 0 0
69 1 2.83683 0.65678 4.60441 0 0 0
121 5 4.96207 -0.038874 1.69909 0 0 0
107 5 0.00623622 -0.00673823 3.17108 0 0 0
86 3 1.31072 -1.22205 4.33075 0 0 0
98 5 0.337917 -1.75161 1.38441 0 0 0
117 5 2.26178 -1.5094 3.85896 0 0 0
118 5 1.13625 -1.91441 5.16362 0 0 0
115 5 3.5504 -0.109879 0.0547744 0 0 0
73 3 -1.7744 -1.84481 1.22502 0 0 0
75 3 -0.419804 -1.98844 2.14122 0 0 0
80 3 -0.0096419 -1.07178 3.43741 0 0 0
90 5 -2.91119 -3.73212 0.857534 0 0 0
93 5 -2.62775 -1.45409 1.78851 0 0 0
94 5 -1.48034 -1.06102 0.547659 0 0 0
97 5 -0.271442 -3.02839 2.45991 0 0 0
108 5 -0.742172 -1.2159 4.23973 0 0 0
71 3 -2.4123 -2.97291 0.243616 0 0 0
33 6 16.6013 23.5816 15.4056 0 0 0
1 1 16.9548 24.4374 15.9804 0 0 0
2 1 18.3446 24.8412 15.5036 0 0 0
34 6 18.6396 24.2188 14.6586 0 0 0
36 6 20.2058 24.1861 16.3298 0 0 0
32 6 16.2547 25.2691 15.8989 0 0 0
35 6 18.376 25.8959 15.2296 0 0 0
68 6 16.4576 23.2481 17.7001 0 0 0
3 1 19.2556 24.5703 16.7012 0 0 0
4 2 18.5594 23.5854 17.5505 0 0 0
5 3 19.0566 23.5537 18.8816 0 0 0
6 3 18.2352 23.3763 20.001 0 0 0
7 3 18.7482 23.3903 21.2928 0 0 0
8 3 20.1049 23.5893 21.5353 0 0 0
9 3 20.5683 23.6588 22.8582 0 0 0
10 4 19.8612 23.095 23.7217 0 0 0
11 3 21.7221 24.3157 23.3236 0 0 0
28 3 22.2244 24.005 24.588 0 0 0
29 3 20.9378 23.6474 20.4198 0 0 0
30 3 20.4275 23.6264 19.1293 0 0 0
31 1 17.1613 24.0394 17.4408 0 0 0
38 6 17.2329 23.227 19.9126 0 0 0
39 6 18.0914 23.2788 22.0649 0 0 0
65 6 21.9491 23.6744 20.5292 0 0 0
66 6 21.1029 23.657 18.3689 0 0 0
67 6 16.9962 24.9213 18.0612 0 0 0
12 3 22.3624 25.336 22.6191 0 0 0
13 3 23.491 25.9646 23.1279 0 0 0
14 3 24.003 25.6329 24.3725 0 0 0
37 6 19.4081 25.5012 17.2486 0 0 0
40 6 21.9983 25.6738 21.7323 0 0 0
41 6 23.9417 26.6974 22.5807 0 0 0
15 5 25.401 26.5423 24.8769 0 0 0
27 3 23.3431 24.6476 25.1075 0 0 0
63 6 23.65 24.3754 26.0363 0 0 0
64 6 21.7864 23.2864 25.164 0 0 0
43 6 26.1942 24.5538 25.9719 0 0 0
47 6 27.9697 24.4415 27.801 0 0 0
51 6 29.7483 24.3751 29.6192 0 0 0
55 6 31.4858 24.3435 31.4284 0 0 0
59 6 33.1742 24.2641 33.2377 0 0 0
16 1 26.012 25.585 26.2759 0 0 0
17 1 27.3212 26.2144 26.7613 0 0 0
18 1 27.8101 25.4962 28.0247 0 0 0
19 1 29.1231 26.1175 28.5148 0 0 0
20 1 29.5767 25.4347 29.8102 0 0 0
21 1 30.8729 26.0805 30.3148 0 0 0
22 1 31.3179 25.404 31.6157 0 0 0
23 1 32.6129 26.0343 32.1427 0 0 0
42 6 25.2889 25.6211 27.0896 0 0 0
44 6 28.0725 26.1343 25.9755 0 0 0
45 6 27.1446 27.2664 26.9859 0 0 0
46 6 27.0548 25.5903 28.8049 0 0 0
48 6 29.8906 25.9901 27.7513 0 0 0
49 6 28.9716 27.1803 28.7028 0 0 0
50 6 28.8006 25.5438 30.568 0 0 0
52 6 31.652 25.9657 29.5613 0 0 0
53 6 30.7007 27.1406 30.5005 0 0 0
54 6 30.5343 25.5174 32.3648 0 0 0
57 6 32.4496 27.0937 32.3416 0 0 0
56 6 33.4034 25.921 31.4005 0 0 0
60 6 35.1262 25.7856 33.3112 0 0 0
24 1 33.018 25.3235 33.4397 0 0 0
58 6 32.2229 25.4344 34.1767 0 0 0
25 1 34.3085 25.9044 34.0222 0 0 0
26 5 34.6929 25.0043 35.5328 0 0 0
61 6 34.1723 26.9608 34.2536 0 0 0
62 7 35.822 25.7308 35.7455 0 0 0
76 3 0.803361 2.00459 -1.59955 0 0 0
77 3 2.35586 1.95522 -2.05757 0 0 0
81 3 3.63562 1.80042 -1.13723 0 0 0
99 5 0.753119 2.66886 -0.732374 0 0 0
100 5 0.631714 0.977629 -1.29639 0 0 0
101 5 2.6787 2.87756 -2.55539 0 0 0
102 5 2.51007 1.15499 -2.79568 0 0 0
109 5 4.0198 2.82459 -1.02004 0 0 0
110 5 4.26682 1.35767 -1.91394 0 0 0
78 3 -0.462997 2.45161 -2.51694 0 0 0
82 3 -2.01327 2.27362 -2.15058 0 0 0
83 4 -3.15151 0.302438 -3.54614 0 0 0
85 4 -2.93157 1.63018 -3.13648 0 0 0
103 5 -0.441237 3.54584 -2.557 0 0 0
104 5 -0.376144 2.12526 -3.56022 0 0 0
111 5 -2.36129 2.06216 -1.12969 0 0 0
112 5 -2.34863 3.30595 -2.26327 0 0 0
113 5 -3.63403 0.285523 -4.45802 0 0 0
116 5 -3.59185 2.2724 -3.60729 0 0 0
92 5 -4.55451 -2.84364 -0.317752 0 0 0
72 3 -3.5747 -2.7498 -0.805277 0 0 0
74 3 -3.80422 -1.55821 -1.81581 0 0 0
79 3 -2.81542 -1.02671 -2.94935 0 0 0
89 5 -1.69364 -3.52154 -0.380825 0 0 0
91 5 -3.559 -3.69614 -1.35642 0 0 0
95 5 -4.26017 -0.734526 -1.26567 0 0 0
96 5 -4.65172 -1.98118 -2.35749 0 0 0
105 5 -2.92631 -1.67404 -3.82193 0 0 0
106 5 -1.75632 -1.06814 -2.72695 0 0 0
ITEM: TIMESTEP
101
ITEM: NUMBER OF ATOMS
122
ITEM: BOX BOUNDS pp pp pp
0.0000000000000000e+00 5.0000000000000000e+01
0.0000000000000000e+00 5.0000000000000000e+01
0.0000000000000000e+00 5.0000000000000000e+01
ITEM: ATOMS id type xu yu zu vx vy vz
70 2 1.12903 0.473502 6.02708 0 0 0
84 3 3.81196 0.938616 0.214825 0 0 0
87 3 5.14321 0.810597 1.04321 0 0 0
88 4 1.70853 0.0290738 5.00839 0 0 0
114 5 3.16104 1.31883 0.999413 0 0 0
119 5 5.31304 1.65426 1.72113 0 0 0
120 5 6.08419 0.557534 0.536345 0 0 0
122 6 3.14773 1.45973 5.07348 0 0 0
69 1 2.83706 0.657129 4.60436 0 0 0
121 5 4.96171 -0.0388044 1.69935 0 0 0
107 5 0.0063305 -0.00684136 3.17098 0 0 0
86 3 1.31096 -1.22211 4.33038 0 0 0
98 5 0.338144 -1.75162 1.38437 0 0 0
117 5 2.26188 -1.50944 3.85885 0 0 0
118 5 1.13635 -1.9141 5.16341 0 0 0
115 5 3.55051 -0.110032 0.0546785 0 0 0
73 3 -1.77417 -1.84451 1.22508 0 0 0
75 3 -0.41953 -1.98831 2.14124 0 0 0
80 3 -0.00944939 -1.07174 3.43754 0 0 0
90 5 -2.91157 -3.7314 0.857809 0 0 0
93 5 -2.62771 -1.45407 1.78839 0 0 0
94 5 -1.48038 -1.06052 0.547752 0 0 0
97 5 -0.271373 -3.02831 2.45982 0 0 0
108 5 -0.742031 -1.2159 4.2398 0 0 0
71 3 -2.41205 -2.97266 0.243595 0 0 0
33 6 16.6013 23.5815 15.4055 0 0 0
1 1 16.9548 24.4373 15.9804 0 0 0
2 1 18.3447 24.8412 15.5036 0 0 0
34 6 18.6396 24.2188 14.6586 0 0 0
36 6 20.2057 24.1862 16.3299 0 0 0
32 6 16.2547 25.269 15.899 0 0 0
35 6 18.3758 25.8959 15.2297 0 0 0
68 6 16.4576 23.2481 17.7001 0 0 0
3 1 19.2556 24.5703 16.7013 0 0 0
4 2 18.5596 23.5853 17.5505 0 0 0
5 3 19.0558 23.5536 18.8818 0 0 0
6 3 18.2355 23.3764 20.0006 0 0 0
7 3 18.7481 23.3903 21.293 0 0 0
8 3 20.1051 23.5894 21.5343 0 0 0
9 3 20.5685 23.659 22.8592 0 0 0
10 4 19.8611 23.0953 23.7216 0 0 0
11 3 21.7215 24.3155 23.3231 0 0 0
28 3 22.2245 24.0048 24.5883 0 0 0
29 3 20.9374 23.6474 20.4201 0 0 0
30 3 20.4283 23.6264 19.1292 0 0 0
31 1 17.1613 24.0394 17.4409 0 0 0
38 6 17.2327 23.227 19.9126 0 0 0
39 6 18.0915 23.2789 22.0648 0 0 0
65 6 21.9492 23.6744 20.5292 0 0 0
66 6 21.1029 23.6569 18.3688 0 0 0
67 6 16.9962 24.9213 18.0612 0 0 0
12 3 22.363 25.3362 22.6194 0 0 0
13 3 23.4905 25.9647 23.1273 0 0 0
14 3 24.0029 25.6325 24.3732 0 0 0
37 6 19.4081 25.5012 17.2486 0 0 0
40 6 21.9984 25.6738 21.7322 0 0 0
41 6 23.9418 26.6975 22.5807 0 0 0