ITEM: TIMESTEP
0
ITEM: NUMBER OF ATOMS
122
ITEM: BOX BOUNDS pp pp pp
0.0000000000000000e+00 5.0000000000000000e+01
0.0000000000000000e+00 5.0000000000000000e+01
0.0000000000000000e+00 5.0000000000000000e+01
ITEM: ATOMS id type xu yu zu vx vy vz
70 2 1.12853 0.473386 6.02759 0 0 -0
84 3 3.81179 0.938473 0.214848 -0 -0 0
87 3 5.14288 0.810468 1.04341 -0 0 0
88 4 1.70934 0.0286265 5.00751 0 -0 -0
114 5 3.1605 1.31865 0.99918 0 0 -0
119 5 5.31276 1.65422 1.72113 -0 0 -0
120 5 6.08383 0.557096 0.536685 0 -0 0
122 6 3.14774 1.46009 5.07343 -0 0 -0
69 1 2.83658 0.657232 4.60465 -0 0 -0
121 5 4.96117 -0.0387079 1.69975 -0 0 -0
107 5 0.00649155 -0.00694991 3.17085 -0 -0 0
86 3 1.31118 -1.22193 4.33026 0 -0 -0
98 5 0.338503 -1.75163 1.38431 -0 -0 -0
117 5 2.26214 -1.5095 3.85864 -0 -0 0
118 5 1.13652 -1.91373 5.16307 -0 0 0
115 5 3.55066 -0.110247 0.0545311 0 -0 -0
73 3 -1.77384 -1.84409 1.22507 -0 -0 0
75 3 -0.419176 -1.9881 2.14127 -0 0 -0
80 3 -0.0092219 -1.07176 3.43757 0 0 0
90 5 -2.91209 -3.73029 0.858182 -0 0 0
93 5 -2.62764 -1.45401 1.78826 -0 -0 0
94 5 -1.48045 -1.05978 0.547893 0 0 0
97 5 -0.271256 -3.02819 2.4597 -0 -0 0
108 5 -0.741825 -1.2159 4.2399 -0 -0 0
71 3 -2.41168 -2.97229 0.243596 0 -0 0
33 6 16.6013 23.5814 15.4055 0 -0 -0
1 1 16.9549 24.4372 15.9804 0 -0 -0
2 1 18.3447 24.8412 15.5037 0 0 0
34 6 18.6396 24.2189 14.6586 -0 0 -0
36 6 20.2056 24.1863 16.3299 -0 0 -0
32 6 16.2547 25.2688 15.8991 0 0 0
35 6 18.3757 25.8959 15.2298 -0 -0 -0
68 6 16.4576 23.2479 17.7002 -0 -0 -0
3 1 19.2556 24.5703 16.7014 0 -0 0
4 2 18.5596 23.5852 17.5505 0 -0 -0
5 3 19.0565 23.5537 18.8815 0 -0 -0
6 3 18.2352 23.3764 20.001 -0 -0 -0
7 3 18.7481 23.3905 21.2926 -0 0 -0
8 3 20.105 23.5895 21.5353 0 0 -0
9 3 20.5681 23.6591 22.8582 0 -0 0
10 4 19.8607 23.0954 23.7219 0 -0 -0
11 3 21.7221 24.3157 23.3235 0 0 -0
28 3 22.2245 24.0049 24.5878 0 0 -0
29 3 20.9379 23.6474 20.4196 0 -0 0
30 3 20.4279 23.6263 19.1292 0 -0 -0
31 1 17.1614 24.0392 17.4409 0 0 -0
38 6 17.2326 23.2272 19.9125 -0 0 -0
39 6 18.0915 23.2789 22.0648 -0 0 -0
65 6 21.9492 23.6744 20.5293 0 0 0
66 6 21.1032 23.6568 18.3686 0 -0 -0
67 6 16.9962 24.9212 18.0613 0 -0 0
12 3 22.3626 25.336 22.619 0 0 -0
13 3 23.4911 25.9648 23.1279 -0 -0 -0
14 3 24.0028 25.6329 24.3727 0 0 -0
37 6 19.408 25.5013 17.2487 0 -0 -0
40 6 21.9986 25.6739 21.7322 0 -0 0
41 6 23.9419 26.6977 22.5807 -0 0 -0
15 5 25.4008 26.5425 24.877 0 0 0
27 3 23.3432 24.6477 25.1075 0 -0 0
63 6 23.6502 24.3752 26.0364 0 0 -0
64 6 21.7864 23.2863 25.1637 -0 0 -0
43 6 26.1939 24.5538 25.9721 -0 0 0
47 6 27.9698 24.4414 27.8011 0 0 0
51 6 29.7484 24.3753 29.6191 -0 -0 0
55 6 31.4856 24.3434 31.4283 -0 -0 0
59 6 33.1741 24.2638 33.2379 0 -0 0
16 1 26.0117 25.585 26.276 0 0 -0
17 1 27.321 26.2142 26.7613 -0 0 0
18 1 27.8101 25.4962 28.0246 0 0 -0
19 1 29.1231 26.1175 28.5147 0 -0 0
20 1 29.5769 25.4349 29.8101 -0 -0 0
21 1 30.8731 26.0806 30.3149 0 -0 -0
22 1 31.3179 25.4039 31.6157 0 0 -0
23 1 32.6128 26.0341 32.143 -0 -0 -0
42 6 25.2888 25.621 27.0899 -0 -0 -0
44 6 28.0722 26.134 25.9754 0 -0 0
45 6 27.1446 27.2663 26.9858 -0 0 -0
46 6 27.0549 25.5901 28.805 -0 0 0
48 6 29.8905 25.9903 27.7512 0 -0 -0
49 6 28.9715 27.1804 28.7026 -0 0 -0
50 6 28.8008 25.544 30.5679 -0 -0 -0
52 6 31.6521 25.9658 29.5613 -0 0 -0
53 6 30.7009 27.1407 30.5006 0 0 0
54 6 30.5341 25.5173 32.3647 0 0 0
57 6 32.4496 27.0935 32.3419 0 0 -0
56 6 33.4034 25.9207 31.4009 0 0 0
60 6 35.126 25.7856 33.311 0 0 -0
24 1 33.0179 25.3232 33.4398 -0 0 -0
58 6 32.2229 25.4341 34.1769 0 0 -0
25 1 34.3085 25.9043 34.0222 0 0 0
26 5 34.6934 25.0045 35.5328 0 0 0
61 6 34.1722 26.9608 34.2535 0 -0 -0
62 7 35.8224 25.7314 35.7453 -0 -0 -0
76 3 0.803247 2.00407 -1.59939 0 0 0
77 3 2.35584 1.95487 -2.05745 0 0 0
81 3 3.63579 1.80015 -1.13723 -0 -0 0
99 5 0.752999 2.66781 -0.731734 -0 -0 -0
100 5 0.631371 0.977095 -1.29669 -0 -0 -0
101 5 2.67799 2.87725 -2.55564 0 0 -0
102 5 2.51026 1.15497 -2.79588 0 -0 0
109 5 4.01991 2.8244 -1.02028 0 0 0
110 5 4.2675 1.3578 -1.91372 -0 -0 -0
78 3 -0.463249 2.45122 -2.51664 -0 0 0
82 3 -2.01353 2.27336 -2.15022 -0 0 0
83 4 -3.15167 0.302625 -3.54672 0 -0 -0
85 4 -2.93194 1.63036 -3.13651 0 0 0
103 5 -0.441429 3.5456 -2.55613 -0 -0 0
104 5 -0.37655 2.12459 -3.55988 0 0 0
111 5 -2.36132 2.06197 -1.12923 -0 -0 0
112 5 -2.34857 3.30581 -2.26257 -0 0 -0
113 5 -3.63423 0.284851 -4.45854 -0 -0 0
116 5 -3.5915 2.27304 -3.60775 -0 0 -0
92 5 -4.55372 -2.84427 -0.317703 0 -0 -0
72 3 -3.57406 -2.74946 -0.805511 0 -0 0
74 3 -3.80458 -1.55808 -1.81628 0 0 -0
79 3 -2.81561 -1.02614 -2.94961 -0 0 -0
89 5 -1.69293 -3.52185 -0.380444 0 -0 -0
91 5 -3.55796 -3.69595 -1.35655 0 -0 0
95 5 -4.26082 -0.734577 -1.26602 -0 0 -0
96 5 -4.65211 -1.98163 -2.35769 -0 0 0
105 5 -2.92601 -1.67352 -3.82201 -0 0 -0
106 5 -1.75653 -1.06755 -2.72728 0 0 -0
ITEM: TIMESTEP
1000
ITEM: NUMBER OF ATOMS
122
ITEM: BOX BOUNDS pp pp pp
0.0000000000000000e+00 5.0000000000000000e+01
0.0000000000000000e+00 5.0000000000000000e+01
0.0000000000000000e+00 5.0000000000000000e+01
ITEM: ATOMS id type xu yu zu vx vy vz
70 2 0.844136 0.809848 6.02977 -0.000200877 0.00119328 7.84674e-05
84 3 3.7988 0.702281 0.122248 0.000150314 -0.000533655 -0.0010628
87 3 5.12046 0.508115 0.95282 2.06328e-06 -0.00107582 -0.000997343
88 4 1.49537 0.372138 5.04997 -0.000387953 0.00124495 -0.000556219
114 5 3.14178 0.997131 0.93722 0.000206254 -0.0006772 -0.000910227
119 5 5.18386 1.21533 1.78681 -0.000467892 -0.00182414 -0.000315269
120 5 6.10003 0.453127 0.456964 0.000145676 -0.000407301 -0.000687847
122 6 2.82407 1.90748 5.10294 -0.000303897 0.00125408 -0.0010984
69 1 2.5888 1.06582 4.65878 -0.00119755 0.00161743 -0.00110245
121 5 5.00166 -0.469108 1.41908 -4.0918e-05 -0.00153367 -0.0018656
107 5 -0.149181 0.163816 3.18937 -0.0013678 0.000267379 0.000628372
86 3 1.20597 -0.925588 4.40863 -0.000499443 0.00113608 0.000264081
98 5 0.399878 -1.51871 1.42507 -0.000496857 -0.000897672 0.00103194
117 5 2.19264 -1.18119 3.99666 -0.000551249 0.000872356 0.000155358
118 5 1.02433 -1.59036 5.25955 -5.34917e-05 0.00141751 0.000580335
115 5 3.54841 -0.325962 -0.1458 -8.80653e-05 -0.000407969 -0.00150359
73 3 -1.68936 -1.80486 1.18719 -0.000489741 -0.000225902 0.00042801
75 3 -0.35727 -1.8381 2.14904 -0.000846322 -0.000104425 0.000964459
80 3 -0.0830921 -0.896224 3.46254 -0.000880117 0.000329446 0.00060105
90 5 -2.63636 -3.77541 0.765499 -0.00012126 -0.000460049 -0.000193561
93 5 -2.59199 -1.5047 1.72688 -0.000638187 -0.000316613 0.000255628
94 5 -1.44338 -1.00316 0.512203 -0.000216344 -0.000275006 0.000336039
97 5 -0.11381 -2.86503 2.45526 -0.00190493 -7.34509e-05 0.00198385
108 5 -0.831521 -1.09867 4.23866 -0.000714428 0.000152565 0.000782468
71 3 -2.20554 -2.95982 0.173365 0.000159443 -0.000306208 0.000206389
33 6 17.9695 22.1115 14.9079 -7.88745e-05 -0.00836703 0.00259218
1 1 17.6161 22.58 15.8266 0.000761655 -0.00552923 0.00144126
2 1 17.1926 24.0264 15.5841 0.00110448 -0.0061015 -0.00229949
34 6 17.8423 24.4803 14.8357 0.00349863 -0.00681878 -0.000607478
36 6 17.5319 25.7581 16.8542 -0.006116 -0.00484734 -0.00208914
32 6 16.784 22.0159 16.2475 0.00108112 -0.00400608 0.00414977
35 6 16.1473 24.095 15.283 0.00210602 -0.00708542 -0.00578582
68 6 19.7016 22.4998 16.3893 0.00165712 0.00103595 -0.000823791
3 1 17.4369 24.6763 16.9459 -0.00321848 -0.00510745 -0.00210602
4 2 18.7029 24.063 17.3702 -0.00194225 -0.00134762 -0.000630628
5 3 19.0481 24.1046 18.7255 -0.00153914 0.00140886 -0.00077644
6 3 18.2319 23.7478 19.7979 -0.000405179 0.000420496 -0.000207459
7 3 18.7143 23.8162 21.1028 0.000172637 0.000922976 -0.000461702
8 3 20.0391 24.1751 21.388 -0.000587139 0.00368769 -0.000900083
9 3 20.4828 24.2218 22.7277 0.000202431 0.00204835 -0.00129601
10 4 19.6954 23.72 23.5598 0.00145784 -0.00161883 -0.0021835
11 3 21.6797 24.7541 23.2657 -0.00032233 0.00257748 -0.000204515
28 3 22.0602 24.3924 24.5631 0.000617081 0.000594887 -0.00114788
29 3 20.8624 24.4029 20.282 -0.00202232 0.00768213 -0.00140318
30 3 20.3618 24.4413 18.9921 -0.00270157 0.00557559 -0.00142038
31 1 18.7368 22.6877 16.8612 0.00159212 -0.00165284 0.000163501
38 6 17.2742 23.4375 19.6423 0.000223336 -0.0016722 -0.000112438
39 6 18.0569 23.5889 21.8485 0.00102134 -0.00114548 -0.000247411
65 6 21.8645 24.5087 20.3771 -0.00225768 0.011096 -0.0022947
66 6 20.9889 24.6721 18.2216 -0.00331422 0.00673605 -0.00151593
67 6 18.571 21.9656 17.6598 0.00495709 -0.00167943 0.000816526
12 3 22.5083 25.6862 22.6332 -0.00141972 0.00476675 0.00149386
13 3 23.6861 26.1442 23.2083 -0.0010994 0.00427154 0.0017226
14 3 24.0538 25.769 24.4881 5.64138e-05 0.00154396 0.000551402
37 6 16.616 24.4215 17.6135 -0.00337705 -0.00769468 -0.00317032
40 6 22.2523 26.1114 21.7501 -0.00274756 0.0066774 0.00261424
41 6 24.2709 26.8002 22.6909 -0.00203583 0.00580731 0.00256286
15 5 25.5047 26.5086 25.1021 0.000478168 9.59251e-06 0.00197805
27 3 23.2107 24.8937 25.1695 0.000588823 -0.000106315 -0.000832044
63 6 23.404 24.6006 26.1232 0.00115595 -0.00189538 -0.00116283
64 6 21.5022 23.7388 25.1122 0.00102039 -0.000847498 -0.00234676
43 6 25.9597 24.3713 26.1233 -0.000153731 -0.000874563 0.000916599
47 6 27.823 24.0522 28.0156 0.00136852 -0.00177447 0.000986638
51 6 29.6562 24.0002 29.867 -0.00054725 -0.000885536 0.00186026
55 6 31.5961 24.0372 31.5676 -0.000800787 -0.00119362 0.0021041
59 6 33.4073 24.1427 33.3321 0.000502636 -0.000819278 0.00041748
16 1 25.9297 25.4074 26.4602 0.000293837 -0.000916229 0.00128798
17 1 27.3181 25.8433 26.922 0.000613912 -0.00180932 0.00110637
18 1 27.7386 25.1225 28.2054 0.00108079 -0.00175635 0.00103109
19 1 29.096 25.6844 28.6444 0.000976823 -0.00133485 0.000702893
20 1 29.5448 25.0787 29.978 0.000559528 -0.000843293 0.00101197
21 1 30.8875 25.6978 30.392 0.000940598 -0.00153371 0.000433547
22 1 31.3762 25.0945 31.7155 -6.76161e-05 -0.000820943 0.0009539
23 1 32.6426 25.8166 32.1995 0.000353468 -0.00107651 5.69991e-05
42 6 25.2213 25.5279 27.2799 0.000396039 -0.000995932 0.00151155
44 6 28.0354 25.6319 26.129 -4.33911e-05 -0.00190968 0.000712165
45 6 27.2918 26.9179 27.1017 0.00105334 -0.00178131 0.000691061
46 6 26.9993 25.3026 28.9857 0.00112625 -0.00205261 0.00117787
48 6 29.8397 25.4601 27.8799 0.00134138 -0.00161653 0.0010234
49 6 29.0182 26.7654 28.7596 0.00096528 -0.00127946 0.000659682
50 6 28.7961 25.291 30.741 0.000681273 0.000102436 0.000674543
52 6 31.6291 25.5062 29.6163 0.000820925 -0.00324138 0.000599679
53 6 30.7625 26.7739 30.5124 0.00158301 -0.00125901 -0.000646851
54 6 30.5966 25.1981 32.4701 2.47539e-05 0.000260631 0.00097577
57 6 32.4121 26.8674 32.3745 0.000854881 -0.00104415 -0.000589547
56 6 33.4154 25.7416 31.4345 5.33933e-05 -0.00213258 6.6808e-05
60 6 35.1956 25.8561 33.2483 -0.000211248 0.000809751 -0.000311728
24 1 33.1573 25.1897 33.5048 0.000163101 -0.00068062 0.000164429
58 6 32.3846 25.2546 34.271 0.00016237 -0.000233686 0.000339951
25 1 34.4088 25.9251 33.9995 -4.45822e-05 -6.29957e-05 -0.000132551
26 5 34.9927 25.1816 35.5327 0.000698108 0.00025088 -0.000384454
61 6 34.1719 26.9736 34.1801 -0.000235458 -0.000213867 0.000104489
62 7 36.0331 26.0532 35.6255 0.000619307 -0.000518824 -0.000414367
76 3 0.78521 1.91934 -1.58236 0.000266393 0.000187814 -0.000186163
77 3 2.3372 1.92752 -2.04171 0.000238386 0.000687447 -0.000230409
81 3 3.61923 1.69075 -1.13784 0.000271229 7.51628e-05 -0.0005217
99 5 0.735708 2.45309 -0.631604 0.000246357 -6.41228e-05 -0.000103923
100 5 0.618912 0.860233 -1.43544 0.00033033 4.35147e-05 -0.000465947
101 5 2.65415 2.89425 -2.44988 3.7995e-05 0.00106899 0.000620219
102 5 2.48517 1.20433 -2.85733 0.000349723 0.00141375 -0.000831595
109 5 3.99382 2.70017 -0.911798 0.000261505 -7.41845e-05 6.52942e-05
110 5 4.25909 1.33045 -1.94985 0.000289784 0.000361163 -0.000635431
78 3 -0.488849 2.48431 -2.41791 0.00013967 0.000334724 9.2853e-05
82 3 -2.03546 2.27113 -2.05173 0.000250429 0.00038678 0.00064865
83 4 -3.25277 0.382205 -3.48953 0.000192086 0.000347679 0.000511037
85 4 -2.97786 1.68989 -3.052 -1.22534e-05 0.00031498 0.000904219
103 5 -0.461974 3.57449 -2.31338 0.000188537 0.000390443 -0.000321669
104 5 -0.412715 2.29241 -3.49524 -0.000205308 0.00013322 0.000124328
111 5 -2.37183 1.99415 -1.04387 0.000420803 4.48027e-05 0.000634764
112 5 -2.36964 3.3094 -2.08932 0.000244701 0.000433265 0.000950145
113 5 -3.82131 0.407827 -4.35047 0.000125848 0.000544453 0.000520113
116 5 -3.62449 2.36439 -3.49537 -0.000374621 0.000264473 0.001297
92 5 -4.34061 -3.06372 -0.410273 0.000905649 -0.00134754 -0.000829492
72 3 -3.37827 -2.82426 -0.884321 0.0007743 -0.000587059 -0.000426314
74 3 -3.75311 -1.61439 -1.8344 0.000540583 -0.000487977 -0.000173779
79 3 -2.86643 -0.974745 -2.99571 0.000407898 0.000160909 5.64203e-05
89 5 -1.42304 -3.41227 -0.450248 0.000501095 -0.000218971 0.000589385
91 5 -3.25336 -3.73748 -1.47669 0.00184908 -0.000255996 -0.000680824
95 5 -4.26186 -0.846719 -1.24742 -3.35831e-05 -0.000681722 -0.000277636
96 5 -4.58071 -2.09255 -2.36049 0.000994986 -0.000782019 -0.00060016
105 5 -3.05501 -1.5596 -3.89889 0.000253181 0.000563426 -0.000181547
106 5 -1.79119 -1.02743 -2.86845 0.000391437 0.000215936 -4.03089e-05
ITEM: TIMESTEP
2000
ITEM: NUMBER OF ATOMS
122
ITEM: BOX BOUNDS pp pp pp
0.0000000000000000e+00 5.0000000000000000e+01
0.0000000000000000e+00 5.0000000000000000e+01
0.0000000000000000e+00 5.0000000000000000e+01
ITEM: ATOMS id type xu yu zu vx vy vz
70 2 0.725179 1.76128 5.57213 0.00107597 0.00105632 0.000160477
84 3 3.7032 0.35422 -0.00386082 4.43904e-05 -0.000419934 -0.000667893
87 3 5.03203 -0.396986 0.367463 2.52573e-05 -0.00104703 -0.00226603
88 4 1.36221 1.1449 4.68723 0.000590272 0.000397216 -0.000839117
114 5 3.35083 0.615626 0.991626 0.00103368 -0.000720793 -0.00018954
119 5 5.71488 0.139207 1.03801 0.00206732 -0.000740863 -0.00462745
120 5 5.59626 -0.865959 -0.449269 -0.00256105 -0.00276516 -0.00311726
122 6 2.70594 2.6528 4.45893 7.71201e-05 0.000236555 -0.00270054
69 1 2.46743 1.74342 4.18145 -0.000602545 0.000500064 -0.00202067
107 5 -0.155062 0.595555 2.80158 0.000795962 0.000351319 -0.000496842
121 5 4.6764 -1.2459 0.953315 0.000439284 0.000284496 -8.28908e-05
86 3 1.05183 -0.252982 4.32081 -0.000253137 0.000556011 0.000492147
98 5 0.470487 -1.50402 1.52639 0.000211578 -0.00137003 0.00137907
117 5 2.05303 -0.631977 4.07063 -0.000400842 -0.000304108 0.00105732
118 5 0.772748 -0.712805 5.27474 -0.000932643 0.00135661 0.000597715
73 3 -1.5974 -1.71234 1.09218 4.10932e-05 0.00064028 0.000138189
75 3 -0.385985 -1.58876 2.19151 -0.000270398 0.000179016 0.000661945
80 3 -0.16378 -0.38305 3.28716 0.000166594 0.000672822 -5.89578e-05
90 5 -2.42885 -3.77586 0.788054 0.000341816 0.000625626 0.000123833
93 5 -2.54026 -1.34427 1.50143 -0.000158092 0.00105761 -7.53185e-05
94 5 -1.26799 -1.04221 0.326196 -4.07997e-05 0.000512655 -9.4493e-06
97 5 -0.287527 -2.52804 2.74713 -0.00174519 0.000646102 0.00170682
108 5 -0.984839 -0.3592 4.01316 -0.000238767 0.00158155 -0.000362071
71 3 -1.99744 -2.98345 0.168888 0.000360896 0.000577677 0.00014339
35 6 16.6535 23.5038 17.5762 0.00534372 0.00805841 0.00716666
33 6 18.1624 22.6063 15.1248 -0.00269964 0.00307997 0.00307466
1 1 17.9204 22.4557 16.1765 -0.0043323 0.00231831 0.0026757
2 1 17.3152 23.7371 16.7429 0.00384604 0.00516826 0.00505858
34 6 16.774 24.2902 15.9747 0.00333491 0.00824522 0.00752917
32 6 17.2363 21.6139 16.2885 -0.00962225 0.0062917 0.000642933
68 6 19.9938 21.8551 16.3026 -0.00963173 -0.0140851 0.00350168
37 6 18.2977 25.1396 18.0842 0.0153152 0.00181083 -0.000251749
3 1 18.5441 24.514 17.226 0.00982095 -0.00140534 0.000555614
4 2 19.6142 23.5325 17.5187 0.00427929 -0.00748257 -0.00033987
5 3 19.894 23.4472 18.8868 0.00422423 -0.00427361 -0.00013154
6 3 18.8992 23.2009 19.8249 0.00230279 -0.00197267 -0.00176892
7 3 19.1602 23.3559 21.174 0.00100825 0.000133166 -0.00169616
8 3 20.4178 23.7647 21.6143 0.000252177 0.00103776 -0.000783457
9 3 20.535 24.1859 22.9473 -0.000783461 0.000400572 -0.000537447
10 4 19.6183 23.8729 23.7356 -0.00212689 0.000659134 -0.00214718
11 3 21.5196 25.0278 23.4886 2.78801e-05 -0.00134409 0.000387185
28 3 21.7475 25.0094 24.8655 0.00103078 -0.00240111 0.000285879
29 3 21.4657 23.7562 20.6876 0.00170546 0.00130177 0.000740208
30 3 21.2001 23.6358 19.3285 0.00331358 -0.00248747 0.000469344
31 1 19.214 22.2282 16.9672 -0.00613555 -0.00621802 0.00309753
38 6 17.9549 22.9515 19.5404 0.00226162 -0.00250493 -0.00168645
39 6 18.3845 23.2241 21.8225 -0.000242421 0.00067047 -0.00250051
65 6 22.4304 23.8822 20.9887 0.00127835 0.00340328 0.00287398
66 6 21.9608 23.7217 18.6537 0.0048775 -0.00354326 0.0022558
67 6 19.0397 21.497 17.7563 -0.0120837 -0.00393278 0.00398426
36 6 18.8822 25.1571 16.4131 0.0117978 -0.00523566 -0.00160202
12 3 22.2218 25.9667 22.7323 0.000892688 -0.000615312 0.00199193
13 3 23.194 26.7674 23.3156 0.0014616 -0.00133234 0.00218402
14 3 23.4943 26.6647 24.6665 -0.00019812 0.000604597 0.00220386
40 6 22.0186 26.1078 21.7459 0.000930736 -0.00016553 0.00158006
41 6 23.7079 27.4302 22.7363 0.00139138 -0.00182294 0.00151933
27 3 22.7122 25.8228 25.4534 -0.000460309 -0.00104867 0.000996469
63 6 22.8389 25.7775 26.4627 -0.00115906 -0.000488096 0.00175912
64 6 21.226 24.3812 25.4778 0.0015522 -0.00387021 -0.000274387
43 6 25.683 25.4017 25.7931 0.00287872 0.00604195 -0.00672989
47 6 27.1039 24.9832 27.9659 -0.000844256 0.00444311 -0.000279734
51 6 29.2617 24.2908 29.4193 -0.00346493 0.00366821 0.00104738
55 6 31.4786 23.7417 30.6132 -0.000735556 -0.000127469 0.000618791
15 5 24.8392 27.5964 25.2648 -0.00457356 0.00602891 0.00473303
16 1 25.5979 26.3467 26.3325 0.00053668 0.00337671 -0.00216314
17 1 26.9967 26.7938 26.7872 0.000131543 0.00415006 -0.000983129
18 1 27.4163 26.0238 28.0534 0.000392726 0.00405618 -0.00113839
19 1 28.9439 26.0684 28.2379 0.000550017 0.00239699 -0.00286791
20 1 29.4187 25.3645 29.5239 0.000878795 0.00351639 -0.0023333
21 1 30.917 25.6495 29.7811 0.0024537 -0.00226953 -0.00600665
22 1 31.447 24.7811 30.9414 -0.00132967 0.000704382 -0.00222865
23 1 32.8469 25.1627 31.4781 -0.00294581 0.00154455 0.000868548
42 6 24.9845 26.207 27.2211 0.00205017 -0.00306152 -0.00221406
44 6 27.7025 26.6038 25.979 0.00083978 0.00477341 -0.000705156
45 6 26.9825 27.8612 27.0081 -0.000675589 0.00400329 -0.000772859
46 6 26.9281 26.4767 28.9173 0.00138108 0.00475427 -0.000948173
48 6 29.4171 25.5814 27.3847 -0.000839837 0.000804912 -0.00265324
49 6 29.2587 27.1113 28.2693 0.00210455 0.00197606 -0.00426919
50 6 28.8389 25.7326 30.3703 0.00405939 0.00794415 -0.00202171
52 6 31.4945 25.4343 28.8815 6.24891e-05 -0.00948025 -0.00572386
53 6 31.0299 26.7043 30.0339 0.00797468 -0.001409 -0.012333
54 6 30.7357 24.8635 31.7627 -0.00290666 0.00319698 -0.00388175
57 6 32.9776 26.2442 31.4596 -0.00455571 0.00195827 0.00399764
56 6 33.613 24.6959 30.8593 -0.000855645 0.00478389 0.000911358
60 6 34.9346 23.795 33.0777 -0.00253167 0.00046506 -0.00358943
59 6 32.5602 23.6592 33.0053 -0.00334358 -0.00278222 -0.00403073
24 1 32.9644 24.6696 32.9383 -0.00429653 -0.00229314 -0.000464404
58 6 32.3654 25.3272 33.5692 -0.00555642 -0.00431688 0.000272329
25 1 34.3932 24.6394 33.5045 -0.00367214 -0.00129556 -0.00157118
26 5 34.3303 24.4618 35.3045 -0.000317671 -0.00434314 -0.00177787
61 6 34.9094 25.5664 33.256 -0.00530756 -5.90459e-05 -0.000445815
62 7 35.6873 24.407 35.4017 0.000279789 -0.00445915 -0.00335606
76 3 0.687145 1.89143 -1.381 -0.00054348 -0.000861743 -8.822e-05
77 3 2.24361 2.21461 -1.66717 -0.000508595 0.000335077 0.00106491
81 3 3.53472 1.67536 -0.905594 -0.000267308 0.000301099 0.000567485
99 5 0.589872 1.84672 -0.303795 -0.000840103 -0.00371951 -0.000387753
100 5 0.57175 0.917371 -1.82936 -0.000164544 0.000206413 -0.00257666
101 5 2.47688 3.28421 -1.60998 -0.000719299 0.000323846 0.00261176
102 5 2.45212 1.91188 -2.70077 -0.000181733 0.00159713 0.000664477
109 5 3.87321 2.52914 -0.302773 -0.00139131 -8.73724e-05 0.00166229
110 5 4.21724 1.66382 -1.758 0.000434613 0.00184328 0.000987703
78 3 -0.62006 2.71896 -1.85306 -0.00048311 0.000188215 0.00181146
82 3 -2.12495 2.17011 -1.8186 -0.000453072 0.000224633 -0.000303561
83 4 -3.06931 0.268661 -3.4863 0.000848637 -0.00027158 -0.000290574
85 4 -2.86714 1.56273 -2.97022 0.00115457 7.45252e-05 -0.00122691
103 5 -0.72694 3.53849 -1.13242 -0.000661034 -0.00203298 0.00437492
104 5 -0.504142 3.20517 -2.83176 -5.65723e-05 0.00325046 0.00338734
111 5 -2.53149 1.80197 -0.872718 -0.00127455 -0.000166357 -0.000815637
112 5 -2.62099 3.14017 -1.84023 -0.000489669 0.000122933 -0.000721584
113 5 -3.59472 0.325655 -4.37122 0.00166565 -0.000538536 -0.000734009
116 5 -3.48345 2.21499 -3.47576 0.00251829 4.88377e-05 -0.00302813
115 5 3.13135 -0.487882 -0.377227 -0.000679149 -7.42283e-05 -0.00037292
92 5 -4.04525 -3.30105 -0.534689 0.000433961 0.000305525 0.000349933
72 3 -3.08986 -2.99035 -0.975093 0.000578999 5.06955e-05 8.96122e-05
74 3 -3.54469 -1.84799 -1.96758 0.000369335 -0.000465201 -0.000274852
79 3 -2.6822 -1.11265 -3.07669 0.000278307 -0.000286749 1.40257e-06
89 5 -1.15445 -3.44127 -0.367616 0.000442107 0.000900886 0.000270744
91 5 -2.84088 -3.89882 -1.53916 0.000393638 -0.000350515 0.000868534
95 5 -4.20596 -1.15971 -1.4392 -0.000317073 -0.000944871 -0.000539733
96 5 -4.24035 -2.43629 -2.56717 0.00105883 -0.00106961 -0.000422166
105 5 -2.91413 -1.6518 -3.99929 -0.000504293 -0.000196281 0.00028864
106 5 -1.60732 -1.19304 -3.0059 0.00032125 -0.000932391 -0.000315221
ITEM: TIMESTEP
3000
ITEM: NUMBER OF ATOMS
122
ITEM: BOX BOUNDS pp pp pp
0.0000000000000000e+00 5.0000000000000000e+01
0.0000000000000000e+00 5.0000000000000000e+01
0.0000000000000000e+00 5.0000000000000000e+01
ITEM: ATOMS id type xu yu zu vx vy vz
70 2 1.50407 1.6101 5.64754 0.00291564 -0.000223668 -0.00125452
88 4 1.66172 0.864218 4.65671 0.00105008 -0.000513953 -0.00171771
114 5 3.65802 0.243509 0.271836 0.00295416 -0.00110125 -0.000877533
119 5 5.90201 -0.0746551 -0.259575 0.000665435 -0.000222553 -0.000993084
122 6 3.11708 2.01516 3.829 0.000158816 -0.00187271 -0.0040614
69 1 2.60886 1.18172 3.73926 2.18121e-05 -0.00150836 -0.00279762
107 5 -0.487095 0.668485 3.36171 -0.00105363 0.000340018 0.00126819
87 3 5.14499 -0.363953 -0.99484 0.00210743 0.00150263 -0.0029661
121 5 4.89585 -1.39632 -0.75169 0.00223409 0.000813977 -0.00663943
86 3 0.931332 -0.411153 4.57808 -1.38733e-05 0.000128548 -0.000327807
98 5 0.0071215 -1.44067 1.83873 -0.00192649 0.00109564 0.000154023
117 5 1.74186 -1.1489 4.43687 -0.00111948 -0.00118345 3.32048e-05
118 5 0.59269 -0.567491 5.6065 0.000354314 0.00149072 0.0001028
73 3 -2.12051 -1.41167 1.52802 -0.00223668 0.000611093 0.0013635
75 3 -0.832592 -1.44483 2.54527 -0.0014697 0.000763384 0.000533243
80 3 -0.407768 -0.371351 3.69651 -0.000715436 0.00020954 0.000605146
90 5 -3.44175 -3.07926 1.2302 -0.000662927 -0.000405737 -0.000430149
93 5 -3.03983 -1.0757 2.02712 -0.00229555 -0.00260702 0.00350041
94 5 -1.91957 -0.633801 0.825976 -0.005158 0.0028252 0.00280408
97 5 -0.878324 -2.37593 3.12824 -0.00168539 0.000674265 0.000214954
108 5 -1.11878 -0.472115 4.52003 7.13236e-05 -5.07721e-05 0.00126131
71 3 -2.61785 -2.67443 0.635123 -0.00100398 0.000929665 -0.000106851
33 6 19.7361 22.2308 15.5746 0.00827338 -0.00745066 -0.00210481
1 1 19.2827 22.4504 16.5416 0.00489417 -0.00472613 -0.00427951
34 6 19.8533 24.5074 16.1311 0.00612181 -0.00519297 -0.00628259
32 6 18.199 22.3543 16.48 0.00512142 -0.00524527 -0.00741218
68 6 20.3665 20.6854 17.0995 0.00249048 -0.00314505 0.00503507
36 6 21.8094 23.5484 17.0383 0.00380852 0.00133283 0.00577452
35 6 18.9274 24.2757 17.6427 0.000396059 -0.00260597 -0.00937643
2 1 19.6849 23.8512 16.9854 0.00306487 -0.0035779 -0.00566766
3 1 20.9832 23.5806 17.7478 7.10336e-05 5.76691e-05 0.00144438
4 2 20.8594 22.263 18.399 0.000980099 -0.000359463 0.00155805
5 3 20.5513 22.5326 19.7452 0.00209035 -0.00314121 0.00262742
6 3 19.3075 22.9947 20.1774 0.00180082 -0.00279362 0.00175872
7 3 19.1579 23.6378 21.3971 0.00191136 -0.000306084 0.000479873
8 3 20.2525 23.8146 22.2281 0.000515613 -0.000168163 0.0022115
9 3 20.1008 24.5834 23.3819 0.000324049 0.00171246 0.00132644
10 4 19.0475 24.4543 24.0414 -0.000877479 0.00369875 0.000940194
28 3 21.0319 25.9213 25.1578 -0.00242032 0.0065042 -2.3296e-05
29 3 21.4522 23.191 21.8774 0.000698739 -2.81363e-05 0.00261423
30 3 21.6034 22.5407 20.658 0.00162981 -0.00105766 0.00308221
31 1 19.8635 21.5082 17.6077 0.00175103 -0.000906701 0.000870301
38 6 18.4897 22.9351 19.5761 0.00153247 -0.00232816 0.00116219
39 6 18.2486 24.0245 21.6532 0.00151878 0.00159751 -0.00187719
65 6 22.2464 23.2231 22.5147 0.00102182 0.000936156 0.00301114
66 6 22.5066 22.1399 20.4021 0.00237496 0.000584982 0.0036669
67 6 19.0726 21.0944 18.231 -0.000140038 0.00172447 -0.00020059
37 6 21.1697 24.3702 18.4764 -0.00496886 0.000808926 0.00196236
11 3 21.06 25.4939 23.8315 -0.000602753 0.00253366 0.000986033
12 3 22.0254 26.0103 22.9696 0.00190701 -0.000290629 0.00172876
13 3 23.0416 26.8185 23.4552 0.00184314 -0.000889606 0.00270466
14 3 23.0559 27.186 24.7935 -0.000296331 0.00117212 0.00221002
40 6 22.0114 25.8123 21.9708 0.00341873 -0.0024942 0.00151322
41 6 23.7656 27.1629 22.8251 0.00359098 -0.00326011 0.00326483
64 6 20.3038 25.609 25.8015 -0.00472562 0.00905791 -0.000782553
51 6 30.4113 26.7513 27.9755 -0.00235184 -0.00334515 -0.00424501
55 6 31.7562 25.0879 29.4539 0.00379045 0.00838647 0.000814176
22 1 30.9909 25.0753 30.2293 0.000601415 0.00288719 -0.00251494
59 6 33.7509 24.7572 31.1215 -0.000587202 0.0184905 0.00808337
24 1 32.9285 24.2347 31.6139 0.00143986 0.00749244 -0.000442779
56 6 31.9364 26.125 31.8656 -0.0149485 -0.00179447 0.010209
60 6 33.8145 24.8257 33.4957 -0.00655897 -0.00593359 0.00743267
27 3 22.0341 26.7571 25.6343 -0.002177 0.00508572 0.00147108
63 6 22.0137 27.0584 26.6089 -0.00409274 0.00710037 0.00146628
15 5 24.2661 28.29 25.3637 -0.00068789 0.00132654 0.00064505
43 6 25.9486 26.6217 25.0481 0.000661319 0.00305896 0.00385285
47 6 28.5553 27.1577 26.255 -0.00385005 -0.00556345 -0.00276181
16 1 25.4858 27.0817 25.9206 -0.000119176 0.00325756 0.00294116
17 1 26.5568 27.7825 26.7757 -0.0003006 0.00208177 0.00363477
18 1 27.7913 26.8921 26.9864 -0.00326383 -0.00246499 -0.00090786
19 1 28.328 27.101 28.4078 -0.00135509 -0.0015306 -0.00252046
20 1 29.6239 26.3092 28.587 -0.0020745 -0.00220165 -0.00280529
21 1 30.0769 26.2929 30.0507 -0.00198209 0.000659864 -0.00261597
23 1 31.6593 25.1044 31.6001 -0.00557786 -0.00210814 0.000748564
42 6 24.9907 26.3178 26.5205 -0.000382299 0.00317705 0.00244053
44 6 26.867 28.7057 26.286 0.000426088 0.00246312 0.00479449
45 6 26.11 28.031 27.738 -0.00026918 0.000427414 0.00444765
46 6 27.5149 25.8456 26.8586 -0.00724274 -0.00163835 0.00156275
48 6 28.5231 28.1591 28.5826 -0.000627297 -0.00152531 -0.00361179
49 6 27.5831 26.7403 29.1173 -0.000814347 0.000157168 -0.00140115
50 6 29.4498 25.2856 28.2565 -0.00363623 -0.00286277 -0.000678256
52 6 30.6148 27.2171 30.2624 -0.00398096 0.00181114 -0.00284972
53 6 29.2245 26.2028 30.7233 -0.00134387 -0.000684837 -0.00224447
54 6 30.4052 24.1587 30.1447 0.00409083 0.00142484 -0.00953813
57 6 30.9181 24.7399 32.3116 -0.00609269 -0.0135363 -0.00538135
61 6 32.37 23.821 33.6732 -0.00446175 -0.0103574 -0.005909
25 1 33.2754 23.9704 33.0877 -0.00251146 -0.00438223 -0.0014453
26 5 34.2547 22.4807 33.309 0.000638012 -0.00348175 -0.00503317
62 7 34.0675 22.5187 34.655 -0.0082758 -0.0140045 -0.00529914
58 6 32.7384 23.288 31.1071 0.0104277 0.0110739 -0.0101305
84 3 3.77224 0.362977 -0.810792 0.00160432 -0.000126795 -0.00100424
76 3 0.57148 1.98889 -1.40706 0.000209482 -0.00114543 -0.000549629
77 3 2.01064 2.61259 -1.01952 -0.000189073 -0.00150947 0.00170337
81 3 3.40736 1.87163 -1.27742 0.000262889 -4.56721e-05 0.000613332
99 5 0.42496 1.2088 -0.67858 -0.00027571 -0.00222027 -0.00180829
100 5 0.647922 1.56544 -2.39746 0.000818871 0.000910378 -0.00155279
101 5 2.00639 2.9639 0.0230226 -0.000649527 -0.00361271 0.00237603
102 5 2.21887 3.52751 -1.58161 0.000146035 -0.000464419 0.00365204
109 5 4.05755 2.56005 -0.73576 -0.000546106 -0.000303562 0.00162113
110 5 3.70793 2.07748 -2.32154 -2.83898e-05 0.0014363 0.000915358
78 3 -0.872911 2.67363 -1.35447 0.000256988 -0.00136363 -0.000354454
82 3 -2.11848 2.02574 -2.06615 0.000172877 -0.000554435 -0.00100988
83 4 -1.85687 -0.191057 -3.57364 0.000464651 -0.000482649 -0.000310757
85 4 -2.06389 1.17789 -3.30078 0.000220399 -0.000352122 -0.00110808
103 5 -1.21404 2.70892 -0.314515 0.000131125 -0.000818225 -0.000417647
104 5 -0.919703 3.70707 -1.71122 0.000942932 -0.00170787 -0.000975459
111 5 -2.86475 1.71829 -1.33698 -0.000332039 -0.00105586 -0.00171922
112 5 -2.60602 2.91515 -2.46355 0.000597391 0.000143794 8.60441e-05
113 5 -1.71179 -0.341333 -4.58204 0.000107024 -0.00115877 -0.000318122
116 5 -2.21574 1.69735 -4.17176 -0.00012784 -0.000724915 -0.00107182
120 5 5.58624 -0.429191 -1.99872 0.00365333 0.00476334 -0.00260688
115 5 3.13637 -0.37952 -1.2882 0.00103639 -0.000314461 -0.000170443
92 5 -4.41997 -2.65972 -0.601566 -0.00166232 0.00181177 0.000255147
72 3 -3.34027 -2.71163 -0.758543 -0.00165762 0.00137724 5.82516e-05
74 3 -3.1283 -1.94818 -2.1112 -0.000101958 -0.000339567 -0.000720962
79 3 -1.78105 -1.43699 -2.75406 0.000723437 0.000565423 0.00139658
89 5 -1.94188 -3.52356 0.446556 -0.000626045 0.00111686 -0.000585139
91 5 -3.19305 -3.76675 -1.00914 -0.00199061 0.00116243 0.000525308
95 5 -3.92923 -1.21673 -2.16643 -0.000804486 -0.00126041 -0.00237108
96 5 -3.46541 -2.70403 -2.82719 0.00207233 -0.00130731 -0.000677666
105 5 -1.54103 -2.17961 -3.52233 0.00520466 -0.000305413 0.00386721
106 5 -0.89017 -1.46556 -2.14011 -0.00142974 0.0032588 0.00415357
ITEM: TIMESTEP
4000
ITEM: NUMBER OF ATOMS
122
ITEM: BOX BOUNDS pp pp pp
0.0000000000000000e+00 5.0000000000000000e+01
0.0000000000000000e+00 5.0000000000000000e+01
0.0000000000000000e+00 5.0000000000000000e+01
ITEM: ATOMS id type xu yu zu vx vy vz
70 2 1.96445 -0.833264 2.21489 0.00104103 -0.00882129 0.00548283
88 4 1.44014 -1.05827 3.32677 -0.000574757 -0.00251491 0.00561408
114 5 4.14448 -0.0400209 -1.66565 0.00253349 -0.000380822 0.000698604