ITEM: TIMESTEP
0
ITEM: NUMBER OF ATOMS
20
ITEM: BOX BOUNDS pp pp ff
0.0000000000000000e+00 6.6751899999999997e+00
0.0000000000000000e+00 1.0012784999999999e+01
0.0000000000000000e+00 1.7191040999999998e+01
ITEM: ATOMS id type xu yu zu vx vy vz
1 1 0 0 0 0 0 0
3 1 2.22506 0 3.14671 0 0 0
6 1 5.56266 1.92696 3.14671 0 0 0
9 1 3.33759 1.92696 0 0 0 0
11 2 4.45013 0 3.93339 0 0 0
14 2 2.22506 0 0.78668 0 0 0
16 2 1.11253 1.92696 3.93339 0 0 0
19 2 5.56266 1.92696 0.78668 0 0 0
5 1 4.45013 0 6.29343 0 0 0
8 1 1.11253 1.92696 6.29343 0 0 0
13 2 0 0 7.08011 0 0 0
18 2 3.33759 1.92696 7.08011 0 0 0
2 1 0 0 9.44014 0 0 0
4 1 2.22506 0 12.5869 0 0 0
7 1 5.56266 1.92696 12.5869 0 0 0
10 1 3.33759 1.92696 9.44014 0 0 0
15 2 2.22506 0 10.2268 0 0 0
20 2 5.56266 1.92696 10.2268 0 0 0
12 2 4.45013 0 13.3735 0 0 0
17 2 1.11253 1.92696 13.3735 0 0 0
ITEM: TIMESTEP
25
ITEM: NUMBER OF ATOMS
20
ITEM: BOX BOUNDS pp pp ff
0.0000000000000000e+00 6.6751899999999997e+00
0.0000000000000000e+00 1.0012784999999999e+01
0.0000000000000000e+00 1.7191040999999998e+01
ITEM: ATOMS id type xu yu zu vx vy vz
19 2 4.56727 2.37649 1.07221 0 0 0
16 2 0.915619 2.40323 3.86314 0 0 0
6 1 4.63933 2.40431 3.9112 0 0 0
9 1 1.68036 2.35222 1.08825 0 0 0
18 2 3.70397 2.39687 6.6642 0 0 0
8 1 0.746304 2.39959 6.70939 0 0 0
20 2 6.48616 2.40263 9.4628 0 0 0
10 1 3.53508 2.40487 9.51017 0 0 0
7 1 6.55789 2.37892 12.3026 0 0 0
17 2 2.76902 2.34968 12.2837 0 0 0
1 1 -1.65724 -0.425262 1.08825 0 0 0
3 1 1.30173 -0.477342 3.9112 0 0 0
11 2 4.25322 -0.476267 3.86314 0 0 0
14 2 1.22968 -0.449535 1.07221 0 0 0
5 1 4.0839 -0.472636 6.70939 0 0 0
13 2 0.366377 -0.469913 6.6642 0 0 0
2 1 0.197485 -0.477913 9.51018 0 0 0
4 1 3.22029 -0.451957 12.3026 0 0 0
15 2 3.14857 -0.475674 9.4628 0 0 0
12 2 6.10661 -0.422715 12.2837 0 0 0
ITEM: TIMESTEP
41
ITEM: NUMBER OF ATOMS
20
ITEM: BOX BOUNDS pp pp ff
0.0000000000000000e+00 6.6751899999999997e+00
0.0000000000000000e+00 1.0012784999999999e+01
0.0000000000000000e+00 1.7191040999999998e+01
ITEM: ATOMS id type xu yu zu vx vy vz
19 2 4.05727 2.37585 1.0568 0 0 0
16 2 0.597917 2.40991 3.86807 0 0 0
6 1 4.34366 2.4097 3.88187 0 0 0
9 1 1.18046 2.36684 1.05564 0 0 0
18 2 3.69129 2.40359 6.6768 0 0 0
8 1 0.75906 2.4063 6.69667 0 0 0
20 2 6.78203 2.40794 9.49207 0 0 0
10 1 3.85287 2.41174 9.50513 0 0 0
7 1 7.06772 2.37871 12.3181 0 0 0
17 2 3.26873 2.36478 12.3165 0 0 0
1 1 -2.15713 -0.43988 1.05564 0 0 0
3 1 1.00607 -0.482735 3.88186 0 0 0
11 2 3.93551 -0.482946 3.86807 0 0 0
14 2 0.719675 -0.448896 1.0568 0 0 0
5 1 4.09665 -0.479336 6.69667 0 0 0
13 2 0.353697 -0.476631 6.6768 0 0 0
2 1 0.515276 -0.484771 9.50513 0 0 0
4 1 3.73012 -0.451746 12.3181 0 0 0
15 2 3.44443 -0.480983 9.49206 0 0 0
12 2 6.60632 -0.437831 12.3165 0 0 0
ITEM: TIMESTEP
42
ITEM: NUMBER OF ATOMS
20
ITEM: BOX BOUNDS pp pp ff
0.0000000000000000e+00 6.6751899999999997e+00
0.0000000000000000e+00 1.0012784999999999e+01
0.0000000000000000e+00 1.7191040999999998e+01
ITEM: ATOMS id type xu yu zu vx vy vz
19 2 4.054 2.37144 1.05492 0 0 0
16 2 0.595629 2.40962 3.85821 0 0 0
6 1 4.34043 2.40937 3.88436 0 0 0
9 1 1.17317 2.36305 1.061 0 0 0
18 2 3.69117 2.40389 6.67151 0 0 0
8 1 0.759182 2.40659 6.70199 0 0 0
20 2 6.78527 2.4076 9.48957 0 0 0
10 1 3.85514 2.41141 9.51507 0 0 0
7 1 7.07087 2.37403 12.32 0 0 0
17 2 3.27615 2.36076 12.3111 0 0 0
1 1 -2.16443 -0.436097 1.061 0 0 0
3 1 1.00284 -0.482407 3.88436 0 0 0
11 2 3.93322 -0.482661 3.85821 0 0 0
14 2 0.716409 -0.444484 1.05492 0 0 0
5 1 4.09678 -0.479629 6.70199 0 0 0
13 2 0.35357 -0.476932 6.67151 0 0 0
2 1 0.517543 -0.484449 9.51508 0 0 0
4 1 3.73327 -0.447074 12.32 0 0 0
15 2 3.44768 -0.480641 9.48957 0 0 0
12 2 6.61374 -0.433804 12.3111 0 0 0
ITEM: TIMESTEP
43
ITEM: NUMBER OF ATOMS
20
ITEM: BOX BOUNDS pp pp ff
0.0000000000000000e+00 6.6751899999999997e+00
0.0000000000000000e+00 1.0012784999999999e+01
0.0000000000000000e+00 1.7191040999999998e+01
ITEM: ATOMS id type xu yu zu vx vy vz
19 2 4.0451 2.36862 1.05657 0 0 0
16 2 0.589445 2.40997 3.86201 0 0 0
6 1 4.33468 2.40871 3.8772 0 0 0
9 1 1.16205 2.35979 1.06029 0 0 0
18 2 3.69053 2.40397 6.68003 0 0 0
8 1 0.759813 2.40666 6.69358 0 0 0
20 2 6.79104 2.40692 9.49671 0 0 0
10 1 3.8613 2.41173 9.51121 0 0 0
7 1 7.07969 2.37098 12.3183 0 0 0
17 2 3.28734 2.35727 12.3118 0 0 0
1 1 -2.17554 -0.432832 1.06028 0 0 0
3 1 0.99709 -0.481745 3.8772 0 0 0
11 2 3.92704 -0.483007 3.862 0 0 0
14 2 0.707509 -0.441668 1.05657 0 0 0
5 1 4.09741 -0.479703 6.69358 0 0 0
13 2 0.352934 -0.477007 6.68003 0 0 0
2 1 0.523709 -0.484767 9.51121 0 0 0
4 1 3.74209 -0.444025 12.3183 0 0 0
15 2 3.45345 -0.479958 9.49671 0 0 0
12 2 6.62494 -0.430312 12.3118 0 0 0
