ITEM: TIMESTEP
0
ITEM: NUMBER OF ATOMS
20
ITEM: BOX BOUNDS pp pp ff
0.0000000000000000e+00 6.6751899999999997e+00
0.0000000000000000e+00 1.0012784999999999e+01
0.0000000000000000e+00 1.7191040999999998e+01
ITEM: ATOMS id type xu yu zu vx vy vz
19 2 4.0451 2.36862 1.05657 0 -0 0
16 2 0.589445 2.40997 3.86201 -0 0 -0
6 1 4.33468 2.40871 3.8772 -0 -0 -0
9 1 1.16205 2.35979 1.06029 0 -0 0
18 2 3.69053 2.40397 6.68003 -0 0 -0
8 1 0.759813 2.40666 6.69358 0 0 -0
20 2 6.79104 2.40692 9.49671 -0 0 0
10 1 3.8613 2.41173 9.51121 0 -0 -0
7 1 7.07969 2.37098 12.3183 -0 0 -0
17 2 3.28734 2.35727 12.3118 -0 0 0
1 1 -2.17554 -0.432832 1.06028 0 -0 -0
3 1 0.99709 -0.481745 3.8772 0 -0 0
11 2 3.92704 -0.483007 3.862 0 0 -0
14 2 0.707509 -0.441668 1.05657 0 0 0
5 1 4.09741 -0.479703 6.69358 -0 -0 -0
13 2 0.352934 -0.477007 6.68003 -0 -0 0
2 1 0.523709 -0.484767 9.51121 0 0 0
4 1 3.74209 -0.444025 12.3183 -0 -0 -0
15 2 3.45345 -0.479958 9.49671 0 0 0
12 2 6.62494 -0.430312 12.3118 0 0 -0
ITEM: TIMESTEP
1000
ITEM: NUMBER OF ATOMS
20
ITEM: BOX BOUNDS pp pp ff
0.0000000000000000e+00 6.6751899999999997e+00
0.0000000000000000e+00 1.0012784999999999e+01
0.0000000000000000e+00 1.7191040999999998e+01
ITEM: ATOMS id type xu yu zu vx vy vz
19 2 3.62966 2.36503 1.04857 -0.00206495 0.000165671 0.00043888
16 2 0.331492 2.41109 3.8658 -0.00140924 0.000130001 0.000477111
6 1 4.07453 2.41227 3.86172 -0.00152263 2.40508e-05 -0.000290545
9 1 0.745592 2.36862 1.04258 -0.00252207 6.73674e-05 -5.58772e-05
18 2 3.68915 2.40542 6.69441 -5.57693e-05 -4.36916e-05 0.000689449
8 1 0.760418 2.40768 6.68691 1.68831e-05 1.74038e-05 -0.000505777
20 2 7.04871 2.40914 9.51836 0.00146393 -0.000294609 0.000461556
10 1 4.12206 2.40959 9.51426 0.00150547 -6.60156e-05 -0.000200701
7 1 7.49606 2.3645 12.3297 0.00244906 -3.64091e-05 -7.53339e-05
17 2 3.7022 2.36508 12.3317 0.00221545 -7.42731e-05 0.000233707
1 1 -2.592 -0.441669 1.04258 -0.00252209 -6.73587e-05 -5.5829e-05
3 1 0.73693 -0.485301 3.86172 -0.00152264 -2.40865e-05 -0.000290519
11 2 3.66909 -0.484124 3.8658 -0.00140919 -0.000129951 0.000477045
14 2 0.292061 -0.438078 1.04857 -0.00206493 -0.000165649 0.000438833
5 1 4.09801 -0.480721 6.68691 1.68819e-05 -1.74529e-05 -0.000505834
13 2 0.351553 -0.478461 6.69441 -5.5766e-05 4.37535e-05 0.000689454
2 1 0.784464 -0.482626 9.51425 0.00150548 6.59971e-05 -0.00020072
4 1 4.15846 -0.43755 12.3297 0.00244909 3.63892e-05 -7.5304e-05
15 2 3.71111 -0.482179 9.51836 0.00146392 0.000294646 0.000461604
12 2 7.0398 -0.43813 12.3317 0.00221542 7.43363e-05 0.000233714
ITEM: TIMESTEP
2000
ITEM: NUMBER OF ATOMS
20
ITEM: BOX BOUNDS pp pp ff
0.0000000000000000e+00 6.6751899999999997e+00
0.0000000000000000e+00 1.0012784999999999e+01
0.0000000000000000e+00 1.7191040999999998e+01
ITEM: ATOMS id type xu yu zu vx vy vz
19 2 3.89697 2.36282 1.04686 0.00147323 -0.000179723 9.66791e-06
16 2 0.498357 2.40759 3.85348 0.00116665 -0.000104365 0.000671144
6 1 4.25174 2.41108 3.87873 0.000962361 -8.63655e-06 -3.27395e-05
9 1 1.02766 2.36461 1.04785 0.00161402 -1.55914e-05 -2.46662e-05
18 2 3.6927 2.4032 6.67564 -4.54092e-05 8.41529e-06 0.000810145
8 1 0.759075 2.40835 6.69838 2.85925e-05 1.55548e-05 -0.000287473
20 2 6.87963 2.40909 9.49581 -0.00112207 -7.10413e-07 0.000612406
10 1 3.94473 2.40713 9.51884 -0.000935377 1.00597e-05 -0.000346259
7 1 7.21438 2.36912 12.3242 -0.00154128 -6.19361e-06 -0.000341487
17 2 3.43572 2.36466 12.3202 -0.00173404 -8.07035e-05 2.36561e-06
1 1 -2.30994 -0.437654 1.04785 0.00161406 1.56429e-05 -2.46891e-05
3 1 0.914143 -0.484117 3.87873 0.000962369 8.61864e-06 -3.27884e-05
11 2 3.83595 -0.480624 3.85348 0.0011666 0.000104428 0.000671111
14 2 0.559381 -0.435861 1.04686 0.00147315 0.0001796 9.77613e-06
5 1 4.09667 -0.48139 6.69838 2.85894e-05 -1.555e-05 -0.000287459
13 2 0.355105 -0.476241 6.67564 -4.54074e-05 -8.41671e-06 0.000810192
2 1 0.607133 -0.480168 9.51883 -0.000935408 -1.00316e-05 -0.000346207
4 1 3.87679 -0.44217 12.3242 -0.00154128 6.24226e-06 -0.000341526
15 2 3.54203 -0.48213 9.49581 -0.00112202 6.52631e-07 0.000612475
12 2 6.77332 -0.437706 12.3202 -0.00173405 8.05879e-05 2.2792e-06
ITEM: TIMESTEP
3000
ITEM: NUMBER OF ATOMS
20
ITEM: BOX BOUNDS pp pp ff
0.0000000000000000e+00 6.6751899999999997e+00
0.0000000000000000e+00 1.0012784999999999e+01
0.0000000000000000e+00 1.7191040999999998e+01
ITEM: ATOMS id type xu yu zu vx vy vz
19 2 3.33597 2.35574 1.06138 -0.000495224 0.000131952 -0.000471501
16 2 0.152577 2.40657 3.86858 0.000133066 -0.000198446 -0.000252954
6 1 3.88126 2.41152 3.8683 -5.22053e-05 0.00011281 0.000382842
9 1 0.44359 2.37508 1.06012 0.000263533 0.00022666 -0.000263938
18 2 3.68675 2.4001 6.68943 4.16677e-05 0.000464797 -0.000508354
8 1 0.760155 2.406 6.68986 3.20303e-05 7.30966e-05 0.000804643
20 2 7.23088 2.4155 9.51047 -0.000103147 0.000302324 -0.000465633
10 1 4.31513 2.40831 9.50372 3.79854e-05 -0.000120787 0.000265366
7 1 7.80089 2.36231 12.3184 -0.000214453 -0.00014151 -0.000296194
17 2 3.99019 2.36487 12.3183 0.000287261 0.000348334 -0.000122041
1 1 -2.89401 -0.448124 1.06012 0.00026358 -0.000226862 -0.000263991
3 1 0.543663 -0.48456 3.8683 -5.21919e-05 -0.00011269 0.000382917
11 2 3.49017 -0.479601 3.86858 0.000133079 0.000198298 -0.00025288
14 2 -0.00162885 -0.428784 1.06138 -0.000495319 -0.000131665 -0.000471646
5 1 4.09775 -0.479037 6.68986 3.20399e-05 -7.30361e-05 0.000804767
13 2 0.349158 -0.473136 6.68943 4.16806e-05 -0.000464826 -0.000508236
2 1 0.977534 -0.481349 9.50372 3.79862e-05 0.000120748 0.000265348
4 1 4.4633 -0.435357 12.3184 -0.000214429 0.000141445 -0.000296263
15 2 3.89329 -0.488536 9.51047 -0.000103279 -0.000302205 -0.000465707
12 2 7.32778 -0.437917 12.3183 0.000287213 -0.000348309 -0.000122049
ITEM: TIMESTEP
4000
ITEM: NUMBER OF ATOMS
20
ITEM: BOX BOUNDS pp pp ff
0.0000000000000000e+00 6.6751899999999997e+00
0.0000000000000000e+00 1.0012784999999999e+01
0.0000000000000000e+00 1.7191040999999998e+01
ITEM: ATOMS id type xu yu zu vx vy vz
19 2 4.00372 2.38508 1.05388 -0.00130417 -0.000660534 -0.000137961
16 2 0.549384 2.41968 3.85701 -0.000630809 -4.41839e-05 -0.00260585
6 1 4.29232 2.40937 3.86953 -0.00148021 0.000415367 0.00093771
9 1 1.08966 2.36213 1.05666 -0.00212495 -0.000114519 1.66489e-05
18 2 3.69736 2.40828 6.68053 2.10024e-05 0.000435089 -0.00233619
8 1 0.760122 2.4134 6.68711 4.99516e-05 0.000250278 0.000915644
20 2 6.82157 2.39828 9.50444 0.00113139 -0.000697788 -0.00253847
10 1 3.90217 2.41634 9.51274 0.00108829 -0.000198841 0.00136962
7 1 7.14472 2.36839 12.331 0.00216498 -0.000324396 0.000784206
17 2 3.34886 2.35671 12.3185 0.00139853 0.000135696 -0.000586914
1 1 -2.24793 -0.435168 1.05666 -0.00212509 0.000114489 1.67944e-05
3 1 0.954725 -0.482404 3.86953 -0.00148016 -0.000415399 0.000937636
11 2 3.88699 -0.492727 3.85701 -0.000630625 4.41793e-05 -0.00260552
14 2 0.666131 -0.458126 1.05389 -0.00130435 0.000660657 -0.000137928
5 1 4.09772 -0.486448 6.6871 4.99001e-05 -0.000250245 0.000915227
13 2 0.359769 -0.481325 6.68054 2.09636e-05 -0.000435227 -0.0023361
2 1 0.564577 -0.489374 9.51274 0.00108835 0.000198975 0.00136957
4 1 3.80712 -0.441424 12.331 0.00216499 0.000324377 0.00078442
15 2 3.48397 -0.47131 9.50444 0.00113123 0.000697534 -0.00253855
12 2 6.68645 -0.429752 12.3185 0.00139843 -0.000135598 -0.000586986
ITEM: TIMESTEP
5000
ITEM: NUMBER OF ATOMS
20
ITEM: BOX BOUNDS pp pp ff
0.0000000000000000e+00 6.6751899999999997e+00
0.0000000000000000e+00 1.0012784999999999e+01
0.0000000000000000e+00 1.7191040999999998e+01
ITEM: ATOMS id type xu yu zu vx vy vz
19 2 3.41055 2.34329 1.04632 0.00280855 0.000244595 9.21286e-05
16 2 0.1993 2.41169 3.90542 0.00300169 8.63123e-06 0.0012487
6 1 3.95724 2.43158 3.84485 0.00142573 4.55178e-05 -0.000569426
9 1 0.560223 2.3644 1.026 0.00286205 0.000293697 -0.000173356
18 2 3.69807 2.39968 6.74174 -0.00033062 0.000220041 0.0014245
8 1 0.760116 2.40427 6.66864 -0.000101054 -0.000158461 -0.001626
20 2 7.18192 2.41137 9.55939 -0.00235431 -0.000858616 0.00075768
10 1 4.23728 2.42011 9.50591 -0.00151237 3.31219e-05 0.00036832
7 1 7.68793 2.35717 12.3145 -0.00201649 -3.56781e-05 -2.75194e-05
17 2 3.90292 2.37698 12.3595 -0.00446658 -0.000731736 0.000612496
1 1 -2.77738 -0.437442 1.026 0.00286208 -0.000293385 -0.0001733
3 1 0.619637 -0.504628 3.84485 0.00142566 -4.58337e-05 -0.000569687
11 2 3.5369 -0.484723 3.90541 0.00300135 -7.8537e-06 0.00124836
14 2 0.0729494 -0.41633 1.04631 0.00280822 -0.000245174 9.2356e-05
5 1 4.09771 -0.477318 6.66863 -0.000101128 0.000158373 -0.00162599
13 2 0.360478 -0.472725 6.74173 -0.000330207 -0.00022019 0.00142439
2 1 0.899689 -0.493147 9.50591 -0.00151263 -3.29393e-05 0.000368489
4 1 4.35034 -0.430209 12.3145 -0.00201642 3.56241e-05 -2.75235e-05
15 2 3.84433 -0.484403 9.55939 -0.00235347 0.00085828 0.000758281
12 2 7.24052 -0.450015 12.3595 -0.00446705 0.000731946 0.000612121
ITEM: TIMESTEP
6000
ITEM: NUMBER OF ATOMS
20
ITEM: BOX BOUNDS pp pp ff
0.0000000000000000e+00 6.6751899999999997e+00
0.0000000000000000e+00 1.0012784999999999e+01
0.0000000000000000e+00 1.7191040999999998e+01
ITEM: ATOMS id type xu yu zu vx vy vz
19 2 3.82554 2.36645 1.03842 -0.00364197 0.000201265 -4.65085e-05
16 2 0.460595 2.39235 3.82269 -0.00194834 -0.000720804 0.00561997
6 1 4.20358 2.42723 3.86449 -0.00195481 5.29738e-05 -0.00113265
9 1 0.966741 2.37975 1.03555 -0.00221755 0.000397849 -0.00273574
18 2 3.69203 2.40764 6.64764 -0.00072519 0.000606229 0.004633
8 1 0.76277 2.38953 6.70804 0.000321237 0.000381266 4.01571e-05
20 2 6.93502 2.41685 9.47549 0.000977112 0.000640822 0.00279834
10 1 3.98847 2.43484 9.55092 0.0021738 -0.00036448 -0.00171963
7 1 7.26886 2.36757 12.3522 0.00204101 -0.000337229 -0.00119216
17 2 3.50482 2.36977 12.3196 0.00459676 0.0011757 0.000739284
1 1 -2.37085 -0.45279 1.03554 -0.00221732 -0.000397977 -0.00273643
3 1 0.865995 -0.50027 3.86447 -0.00195507 -5.29241e-05 -0.00113212
11 2 3.79817 -0.465379 3.8227 -0.00194883 0.000720938 0.00561975
14 2 0.487952 -0.439482 1.03841 -0.00364238 -0.000200764 -4.73484e-05
5 1 4.10036 -0.462582 6.70804 0.000321533 -0.000381663 4.1136e-05
13 2 0.354425 -0.48069 6.64762 -0.000725623 -0.000605979 0.00463286
2 1 0.650869 -0.50787 9.55092 0.00217363 0.000364116 -0.0017194
4 1 3.93126 -0.440606 12.3522 0.0020409 0.000337071 -0.00119208
15 2 3.59743 -0.489904 9.47549 0.000978049 -0.00064027 0.00279806
12 2 6.84241 -0.442813 12.3196 0.00459719 -0.0011751 0.000738929
ITEM: TIMESTEP
7000
ITEM: NUMBER OF ATOMS
20
ITEM: BOX BOUNDS pp pp ff
0.0000000000000000e+00 6.6751899999999997e+00
0.0000000000000000e+00 1.0012784999999999e+01
0.0000000000000000e+00 1.7191040999999998e+01
ITEM: ATOMS id type xu yu zu vx vy vz
19 2 3.57191 2.38331 1.0234 0.00452291 -0.00158544 -0.00168701
16 2 0.253659 2.41469 3.88009 0.00223543 0.0011916 -0.00622831
6 1 3.98556 2.39782 3.83347 0.00137464 8.43114e-05 0.00196765
9 1 0.615232 2.34664 1.05294 0.00172679 -0.000827744 0.00135058
18 2 3.72262 2.40652 6.65418 -0.00142395 0.000568234 -0.00619674
8 1 0.759892 2.41544 6.67472 0.000562303 0.000528382 0.00288257
20 2 7.10939 2.37875 9.52475 -0.00245124 -0.000521423 -0.00602911
10 1 4.20311 2.44069 9.50724 -0.00116933 -0.000935508 0.00384889
7 1 7.61434 2.35498 12.3781 -0.00175564 -0.000528698 0.00108052
17 2 3.78549 2.36767 12.3534 -0.00438948 -0.00109429 -0.00255631
1 1 -2.72237 -0.419648 1.05295 0.00172671 0.000826807 0.0013497
3 1 0.647966 -0.470865 3.83347 0.00137432 -8.33076e-05 0.00196699
11 2 3.59122 -0.487725 3.8801 0.0022366 -0.00119287 -0.00622756
14 2 0.234331 -0.456323 1.02338 0.00452358 0.00158729 -0.00168689
5 1 4.09747 -0.488512 6.67473 0.0005621 -0.000527887 0.00288217
13 2 0.385025 -0.479595 6.65417 -0.00142405 -0.000569828 -0.00619546
2 1 0.865514 -0.513735 9.50723 -0.00116848 0.000936171 0.00384926
4 1 4.27674 -0.427993 12.3781 -0.00175624 0.000529742 0.00108095
15 2 3.77182 -0.451816 9.52477 -0.00245245 0.000519741 -0.00602756
12 2 7.12308 -0.440688 12.3534 -0.0043896 0.00109236 -0.00255635
ITEM: TIMESTEP
8000
ITEM: NUMBER OF ATOMS
20
ITEM: BOX BOUNDS pp pp ff
0.0000000000000000e+00 6.6751899999999997e+00
0.0000000000000000e+00 1.0012784999999999e+01
0.0000000000000000e+00 1.7191040999999998e+01
ITEM: ATOMS id type xu yu zu vx vy vz
19 2 3.80476 2.32429 1.03976 -0.00376003 0.00183575 0.00229958
16 2 0.420056 2.41932 3.88557 -0.00154404 0.00149354 0.00567843
6 1 4.22343 2.39886 3.82627 -0.000942447 5.8022e-05 -0.00179915
9 1 0.971568 2.36864 1.00328 -0.00187678 0.0012036 -0.00195125
18 2 3.66369 2.42577 6.71372 -0.00120387 0.00154876 0.00794831
8 1 0.75432 2.39536 6.71609 0.000246314 -0.000270909 -0.00364671
20 2 6.98535 2.42003 9.52767 0.00215278 0.00121672 0.00538502
10 1 3.96457 2.42828 9.52357 0.00113976 -0.00119949 -0.00291778
7 1 7.26289 2.36955 12.3533 0.0026187 0.000479417 -0.00174462
17 2 3.572 2.37718 12.318 0.00193586 -0.00027818 0.00328048
1 1 -2.366 -0.441548 1.00336 -0.00187623 -0.00120447 -0.00194894
3 1 0.885793 -0.471947 3.82626 -0.000942668 -5.75363e-05 -0.00179736
11 2 3.75765 -0.492374 3.88558 -0.00154058 -0.00149411 0.00567429
14 2 0.467164 -0.397334 1.03974 -0.00376011 -0.00183496 0.00229799
5 1 4.0919 -0.468497 6.7161 0.000245396 0.000270944 -0.00364409
13 2 0.326124 -0.498892 6.71369 -0.00120278 -0.00154702 0.00794367
2 1 0.626953 -0.501369 9.52354 0.00114028 0.0011986 -0.00291635
4 1 3.92529 -0.442537 12.3533 0.00261906 -0.000479387 -0.00174462
15 2 3.64774 -0.493115 9.52762 0.00215042 -0.00121555 0.00537852
12 2 6.90961 -0.450068 12.318 0.00193659 0.000277515 0.00328076
ITEM: TIMESTEP
9000
ITEM: NUMBER OF ATOMS
20
ITEM: BOX BOUNDS pp pp ff
0.0000000000000000e+00 6.6751899999999997e+00
0.0000000000000000e+00 1.0012784999999999e+01
0.0000000000000000e+00 1.7191040999999998e+01
ITEM: ATOMS id type xu yu zu vx vy vz
19 2 3.53741 2.40799 1.0456 0.000287824 -0.00114388 -0.00228009
16 2 0.200628 2.46542 3.84947 5.69537e-05 -0.00107936 -0.00713539
6 1 4.00599 2.39505 3.83944 0.00251076 -0.000792907 0.00301362
9 1 0.587978 2.38392 1.0558 0.00213966 -0.000882588 0.00219651
18 2 3.66239 2.42709 6.64513 -0.00136252 -0.000309994 -0.00798826
8 1 0.740173 2.42528 6.64887 0.000585873 0.00106989 0.00240668
20 2 7.13532 2.43884 9.46857 -0.000772906 0.00106657 -0.00472529
10 1 4.22439 2.4131 9.54195 -0.00226126 -0.000285539 0.00283716
7 1 7.66779 2.36987 12.3779 -0.00168979 -0.000430545 0.0013815
17 2 3.80886 2.34074 12.3914 -0.0008349 -6.83373e-05 -0.00200507
1 1 -2.74963 -0.456948 1.05585 0.00214062 0.000887406 0.00220456
3 1 0.668405 -0.468081 3.83952 0.0025138 0.00079193 0.00300934
11 2 3.53828 -0.538436 3.84947 5.72535e-05 0.00107812 -0.00711326
14 2 0.199885 -0.481048 1.04561 0.000287131 0.00112861 -0.00227944
5 1 4.07787 -0.498351 6.64887 0.000586704 -0.00106503 0.0023955
13 2 0.32486 -0.5002 6.64506 -0.00136624 0.00031604 -0.00797028
2 1 0.886831 -0.486124 9.5419 -0.00226294 0.000285229 0.00283171
4 1 4.33014 -0.442931 12.3779 -0.00168674 0.000421262 0.00137243
15 2 3.7977 -0.511914 9.46854 -0.000773657 -0.00106755 -0.00472002
12 2 7.14644 -0.413692 12.3913 -0.000833317 8.1594e-05 -0.00200813
ITEM: TIMESTEP
10000
ITEM: NUMBER OF ATOMS
20
ITEM: BOX BOUNDS pp pp ff
0.0000000000000000e+00 6.6751899999999997e+00
0.0000000000000000e+00 1.0012784999999999e+01
0.0000000000000000e+00 1.7191040999999998e+01
ITEM: ATOMS id type xu yu zu vx vy vz
19 2 3.8648 2.34298 1.05523 -0.00258388 -0.00209885 0.00191166
16 2 0.458167 2.40111 3.8831 -0.00091767 -0.000823901 0.00621585
6 1 4.24776 2.41187 3.8699 -0.000515652 -0.000127651 -0.00378602
9 1 1.03566 2.33775 1.00184 -0.00127161 -0.00214849 -0.000180593
18 2 3.65358 2.38493 6.73137 -0.00256426 -0.00124776 0.00638695
8 1 0.771449 2.45098 6.68887 0.000340409 0.000868285 -0.0028184
20 2 6.93328 2.51076 9.53403 0.000282145 -0.00155816 0.00704865
10 1 3.97445 2.38147 9.51714 0.00161612 0.000736003 -0.00436066
7 1 7.17418 2.36741 12.3482 0.0021697 0.00177819 -0.000679882
17 2 3.48034 2.34676 12.2733 0.00101038 -9.59757e-05 0.00254625
1 1 -2.30219 -0.412178 1.00075 -0.00127418 0.00212921 -0.000190388
3 1 0.910232 -0.484355 3.86995 -0.000517677 0.000125429 -0.00379217
11 2 3.79595 -0.473665 3.88342 -0.000915169 0.000831174 0.0062446
14 2 0.527105 -0.416231 1.05567 -0.00258913 0.00212295 0.0019151
5 1 4.10941 -0.522742 6.68867 0.000340367 -0.000865604 -0.00283529
13 2 0.316387 -0.457063 6.73194 -0.00255522 0.00126988 0.00640358
2 1 0.637377 -0.454075 9.51703 0.00162003 -0.000731063 -0.00435802
4 1 3.83656 -0.441239 12.3491 0.00217095 -0.00178765 -0.00068675
15 2 3.59613 -0.583206 9.53488 0.000279165 0.00155321 0.00708222
12 2 6.81792 -0.421756 12.2734 0.0010133 9.50462e-05 0.00255025
