ZnS_slab_110_6x6x6.lammps (written by ASE) 

432 	 atoms 
2  atom types
0.0      45.735666607145887  xlo xhi
0.0      32.339999999999996  ylo yhi
0.0      19.056527752977455  zlo zhi


Atoms 

     1   2                       0                       0                       0
     2   1      1.9056527752977452      1.3474999999999999                       0
     3   2      3.8113055505954905                       0      3.8113055505954918
     4   1      5.7169583258932359      1.3474999999999999      3.8113055505954914
     5   2       7.622611101190981                       0      7.6226111011909836
     6   1      1.9056527752977455      1.3474999999999999      7.6226111011909827
     7   2      3.8113055505954909                       0      11.433916651786475
     8   1      5.7169583258932359      1.3474999999999999      11.433916651786475
     9   2       7.622611101190981                       0      15.245222202381967
    10   1      1.9056527752977455      1.3474999999999999      15.245222202381965
    11   2      3.8113055505954874                       0      19.056527752977455
    12   1      5.7169583258932342      1.3474999999999999      19.056527752977455
    13   2                       0      5.3899999999999988                       0
    14   1      1.9056527752977452      6.7374999999999998                       0
    15   2      3.8113055505954905      5.3899999999999988      3.8113055505954918
    16   1      5.7169583258932359      6.7374999999999998      3.8113055505954914
    17   2       7.622611101190981      5.3899999999999988      7.6226111011909836
    18   1      1.9056527752977455      6.7374999999999998      7.6226111011909827
    19   2      3.8113055505954909      5.3899999999999988      11.433916651786475
    20   1      5.7169583258932359      6.7374999999999998      11.433916651786475
    21   2       7.622611101190981      5.3899999999999988      15.245222202381967
    22   1      1.9056527752977455      6.7374999999999998      15.245222202381965
    23   2      3.8113055505954874      5.3899999999999988      19.056527752977455
    24   1      5.7169583258932342      6.7374999999999998      19.056527752977455
    25   2                       0      10.779999999999998                       0
    26   1      1.9056527752977452      12.127499999999998                       0
    27   2      3.8113055505954905      10.779999999999998      3.8113055505954918
    28   1      5.7169583258932359      12.127499999999998      3.8113055505954914
    29   2       7.622611101190981      10.779999999999998      7.6226111011909836
    30   1      1.9056527752977455      12.127499999999998      7.6226111011909827
    31   2      3.8113055505954909      10.779999999999998      11.433916651786475
    32   1      5.7169583258932359      12.127499999999998      11.433916651786475
    33   2       7.622611101190981      10.779999999999998      15.245222202381967
    34   1      1.9056527752977455      12.127499999999998      15.245222202381965
    35   2      3.8113055505954874      10.779999999999998      19.056527752977455
    36   1      5.7169583258932342      12.127499999999998      19.056527752977455
    37   2                       0      16.169999999999995                       0
    38   1      1.9056527752977452      17.517500000000002                       0
    39   2      3.8113055505954905      16.169999999999995      3.8113055505954918
    40   1      5.7169583258932359      17.517500000000002      3.8113055505954914
    41   2       7.622611101190981      16.169999999999995      7.6226111011909836
    42   1      1.9056527752977455      17.517500000000002      7.6226111011909827
    43   2      3.8113055505954909      16.169999999999995      11.433916651786475
    44   1      5.7169583258932359      17.517500000000002      11.433916651786475
    45   2       7.622611101190981      16.169999999999995      15.245222202381967
    46   1      1.9056527752977455      17.517500000000002      15.245222202381965
    47   2      3.8113055505954874      16.169999999999995      19.056527752977455
    48   1      5.7169583258932342      17.517500000000002      19.056527752977455
    49   2                       0      21.559999999999995                       0
    50   1      1.9056527752977452      22.907499999999995                       0
    51   2      3.8113055505954905      21.559999999999995      3.8113055505954918
    52   1      5.7169583258932359      22.907499999999995      3.8113055505954914
    53   2       7.622611101190981      21.559999999999995      7.6226111011909836
    54   1      1.9056527752977455      22.907499999999995      7.6226111011909827
    55   2      3.8113055505954909      21.559999999999995      11.433916651786475
    56   1      5.7169583258932359      22.907499999999995      11.433916651786475
    57   2       7.622611101190981      21.559999999999995      15.245222202381967
    58   1      1.9056527752977455      22.907499999999995      15.245222202381965
    59   2      3.8113055505954874      21.559999999999995      19.056527752977455
    60   1      5.7169583258932342      22.907499999999995      19.056527752977455
    61   2                       0      26.949999999999999                       0
    62   1      1.9056527752977452      28.297499999999996                       0
    63   2      3.8113055505954905      26.949999999999999      3.8113055505954918
    64   1      5.7169583258932359      28.297499999999996      3.8113055505954914
    65   2       7.622611101190981      26.949999999999999      7.6226111011909836
    66   1      1.9056527752977455      28.297499999999996      7.6226111011909827
    67   2      3.8113055505954909      26.949999999999999      11.433916651786475
    68   1      5.7169583258932359      28.297499999999996      11.433916651786475
    69   2       7.622611101190981      26.949999999999999      15.245222202381967
    70   1      1.9056527752977455      28.297499999999996      15.245222202381965
    71   2      3.8113055505954874      26.949999999999999      19.056527752977455
    72   1      5.7169583258932342      28.297499999999996      19.056527752977455
    73   2       7.622611101190981                       0                       0
    74   1       9.528263876488726      1.3474999999999999                       0
    75   2      11.433916651786472                       0      3.8113055505954918
    76   1      13.339569427084218      1.3474999999999999      3.8113055505954914
    77   2      15.245222202381962                       0      7.6226111011909836
    78   1       9.528263876488726      1.3474999999999999      7.6226111011909827
    79   2      11.433916651786472                       0      11.433916651786475
    80   1      13.339569427084218      1.3474999999999999      11.433916651786475
    81   2      15.245222202381962                       0      15.245222202381967
    82   1       9.528263876488726      1.3474999999999999      15.245222202381965
    83   2       11.43391665178647                       0      19.056527752977455
    84   1      13.339569427084216      1.3474999999999999      19.056527752977455
    85   2       7.622611101190981      5.3899999999999988                       0
    86   1       9.528263876488726      6.7374999999999998                       0
    87   2      11.433916651786472      5.3899999999999988      3.8113055505954918
    88   1      13.339569427084218      6.7374999999999998      3.8113055505954914
    89   2      15.245222202381962      5.3899999999999988      7.6226111011909836
    90   1       9.528263876488726      6.7374999999999998      7.6226111011909827
    91   2      11.433916651786472      5.3899999999999988      11.433916651786475
    92   1      13.339569427084218      6.7374999999999998      11.433916651786475
    93   2      15.245222202381962      5.3899999999999988      15.245222202381967
    94   1       9.528263876488726      6.7374999999999998      15.245222202381965
    95   2       11.43391665178647      5.3899999999999988      19.056527752977455
    96   1      13.339569427084216      6.7374999999999998      19.056527752977455
    97   2       7.622611101190981      10.779999999999998                       0
    98   1       9.528263876488726      12.127499999999998                       0
    99   2      11.433916651786472      10.779999999999998      3.8113055505954918
   100   1      13.339569427084218      12.127499999999998      3.8113055505954914
   101   2      15.245222202381962      10.779999999999998      7.6226111011909836
   102   1       9.528263876488726      12.127499999999998      7.6226111011909827
   103   2      11.433916651786472      10.779999999999998      11.433916651786475
   104   1      13.339569427084218      12.127499999999998      11.433916651786475
   105   2      15.245222202381962      10.779999999999998      15.245222202381967
   106   1       9.528263876488726      12.127499999999998      15.245222202381965
   107   2       11.43391665178647      10.779999999999998      19.056527752977455
   108   1      13.339569427084216      12.127499999999998      19.056527752977455
   109   2       7.622611101190981      16.169999999999995                       0
   110   1       9.528263876488726      17.517500000000002                       0
   111   2      11.433916651786472      16.169999999999995      3.8113055505954918
   112   1      13.339569427084218      17.517500000000002      3.8113055505954914
   113   2      15.245222202381962      16.169999999999995      7.6226111011909836
   114   1       9.528263876488726      17.517500000000002      7.6226111011909827
   115   2      11.433916651786472      16.169999999999995      11.433916651786475
   116   1      13.339569427084218      17.517500000000002      11.433916651786475
   117   2      15.245222202381962      16.169999999999995      15.245222202381967
   118   1       9.528263876488726      17.517500000000002      15.245222202381965
   119   2       11.43391665178647      16.169999999999995      19.056527752977455
   120   1      13.339569427084216      17.517500000000002      19.056527752977455
   121   2       7.622611101190981      21.559999999999995                       0
   122   1       9.528263876488726      22.907499999999995                       0
   123   2      11.433916651786472      21.559999999999995      3.8113055505954918
   124   1      13.339569427084218      22.907499999999995      3.8113055505954914
   125   2      15.245222202381962      21.559999999999995      7.6226111011909836
   126   1       9.528263876488726      22.907499999999995      7.6226111011909827
   127   2      11.433916651786472      21.559999999999995      11.433916651786475
   128   1      13.339569427084218      22.907499999999995      11.433916651786475
   129   2      15.245222202381962      21.559999999999995      15.245222202381967
   130   1       9.528263876488726      22.907499999999995      15.245222202381965
   131   2       11.43391665178647      21.559999999999995      19.056527752977455
   132   1      13.339569427084216      22.907499999999995      19.056527752977455
   133   2       7.622611101190981      26.949999999999999                       0
   134   1       9.528263876488726      28.297499999999996                       0
   135   2      11.433916651786472      26.949999999999999      3.8113055505954918
   136   1      13.339569427084218      28.297499999999996      3.8113055505954914
   137   2      15.245222202381962      26.949999999999999      7.6226111011909836
   138   1       9.528263876488726      28.297499999999996      7.6226111011909827
   139   2      11.433916651786472      26.949999999999999      11.433916651786475
   140   1      13.339569427084218      28.297499999999996      11.433916651786475
   141   2      15.245222202381962      26.949999999999999      15.245222202381967
   142   1       9.528263876488726      28.297499999999996      15.245222202381965
   143   2       11.43391665178647      26.949999999999999      19.056527752977455
   144   1      13.339569427084216      28.297499999999996      19.056527752977455
   145   2      15.245222202381962                       0                       0
   146   1      17.150874977679706      1.3474999999999999                       0
   147   2      19.056527752977452                       0      3.8113055505954918
   148   1      20.962180528275198      1.3474999999999999      3.8113055505954914
   149   2       22.86783330357294                       0      7.6226111011909836
   150   1      17.150874977679706      1.3474999999999999      7.6226111011909827
   151   2      19.056527752977452                       0      11.433916651786475
   152   1      20.962180528275198      1.3474999999999999      11.433916651786475
   153   2       22.86783330357294                       0      15.245222202381967
   154   1      17.150874977679706      1.3474999999999999      15.245222202381965
   155   2      19.056527752977448                       0      19.056527752977455
   156   1      20.962180528275194      1.3474999999999999      19.056527752977455
   157   2      15.245222202381962      5.3899999999999988                       0
   158   1      17.150874977679706      6.7374999999999998                       0
   159   2      19.056527752977452      5.3899999999999988      3.8113055505954918
   160   1      20.962180528275198      6.7374999999999998      3.8113055505954914
   161   2       22.86783330357294      5.3899999999999988      7.6226111011909836
   162   1      17.150874977679706      6.7374999999999998      7.6226111011909827
   163   2      19.056527752977452      5.3899999999999988      11.433916651786475
   164   1      20.962180528275198      6.7374999999999998      11.433916651786475
   165   2       22.86783330357294      5.3899999999999988      15.245222202381967
   166   1      17.150874977679706      6.7374999999999998      15.245222202381965
   167   2      19.056527752977448      5.3899999999999988      19.056527752977455
   168   1      20.962180528275194      6.7374999999999998      19.056527752977455
   169   2      15.245222202381962      10.779999999999998                       0
   170   1      17.150874977679706      12.127499999999998                       0
   171   2      19.056527752977452      10.779999999999998      3.8113055505954918
   172   1      20.962180528275198      12.127499999999998      3.8113055505954914
   173   2       22.86783330357294      10.779999999999998      7.6226111011909836
   174   1      17.150874977679706      12.127499999999998      7.6226111011909827
   175   2      19.056527752977452      10.779999999999998      11.433916651786475
   176   1      20.962180528275198      12.127499999999998      11.433916651786475
   177   2       22.86783330357294      10.779999999999998      15.245222202381967
   178   1      17.150874977679706      12.127499999999998      15.245222202381965
   179   2      19.056527752977448      10.779999999999998      19.056527752977455
   180   1      20.962180528275194      12.127499999999998      19.056527752977455
   181   2      15.245222202381962      16.169999999999995                       0
   182   1      17.150874977679706      17.517500000000002                       0
   183   2      19.056527752977452      16.169999999999995      3.8113055505954918
   184   1      20.962180528275198      17.517500000000002      3.8113055505954914
   185   2       22.86783330357294      16.169999999999995      7.6226111011909836
   186   1      17.150874977679706      17.517500000000002      7.6226111011909827
   187   2      19.056527752977452      16.169999999999995      11.433916651786475
   188   1      20.962180528275198      17.517500000000002      11.433916651786475
   189   2       22.86783330357294      16.169999999999995      15.245222202381967
   190   1      17.150874977679706      17.517500000000002      15.245222202381965
   191   2      19.056527752977448      16.169999999999995      19.056527752977455
   192   1      20.962180528275194      17.517500000000002      19.056527752977455
   193   2      15.245222202381962      21.559999999999995                       0
   194   1      17.150874977679706      22.907499999999995                       0
   195   2      19.056527752977452      21.559999999999995      3.8113055505954918
   196   1      20.962180528275198      22.907499999999995      3.8113055505954914
   197   2       22.86783330357294      21.559999999999995      7.6226111011909836
   198   1      17.150874977679706      22.907499999999995      7.6226111011909827
   199   2      19.056527752977452      21.559999999999995      11.433916651786475
   200   1      20.962180528275198      22.907499999999995      11.433916651786475
   201   2       22.86783330357294      21.559999999999995      15.245222202381967
   202   1      17.150874977679706      22.907499999999995      15.245222202381965
   203   2      19.056527752977448      21.559999999999995      19.056527752977455
   204   1      20.962180528275194      22.907499999999995      19.056527752977455
   205   2      15.245222202381962      26.949999999999999                       0
   206   1      17.150874977679706      28.297499999999996                       0
   207   2      19.056527752977452      26.949999999999999      3.8113055505954918
   208   1      20.962180528275198      28.297499999999996      3.8113055505954914
   209   2       22.86783330357294      26.949999999999999      7.6226111011909836
   210   1      17.150874977679706      28.297499999999996      7.6226111011909827
   211   2      19.056527752977452      26.949999999999999      11.433916651786475
   212   1      20.962180528275198      28.297499999999996      11.433916651786475
   213   2       22.86783330357294      26.949999999999999      15.245222202381967
   214   1      17.150874977679706      28.297499999999996      15.245222202381965
   215   2      19.056527752977448      26.949999999999999      19.056527752977455
   216   1      20.962180528275194      28.297499999999996      19.056527752977455
   217   2       22.86783330357294                       0                       0
   218   1      24.773486078870693      1.3474999999999999                       0
   219   2      26.679138854168436                       0      3.8113055505954918
   220   1      28.584791629466185      1.3474999999999999      3.8113055505954914
   221   2      30.490444404763924                       0      7.6226111011909836
   222   1      24.773486078870693      1.3474999999999999      7.6226111011909827
   223   2      26.679138854168436                       0      11.433916651786475
   224   1      28.584791629466185      1.3474999999999999      11.433916651786475
   225   2      30.490444404763924                       0      15.245222202381967
   226   1      24.773486078870693      1.3474999999999999      15.245222202381965
   227   2      26.679138854168432                       0      19.056527752977455
   228   1      28.584791629466181      1.3474999999999999      19.056527752977455
   229   2       22.86783330357294      5.3899999999999988                       0
   230   1      24.773486078870693      6.7374999999999998                       0
   231   2      26.679138854168436      5.3899999999999988      3.8113055505954918
   232   1      28.584791629466185      6.7374999999999998      3.8113055505954914
   233   2      30.490444404763924      5.3899999999999988      7.6226111011909836
   234   1      24.773486078870693      6.7374999999999998      7.6226111011909827
   235   2      26.679138854168436      5.3899999999999988      11.433916651786475
   236   1      28.584791629466185      6.7374999999999998      11.433916651786475
   237   2      30.490444404763924      5.3899999999999988      15.245222202381967
   238   1      24.773486078870693      6.7374999999999998      15.245222202381965
   239   2      26.679138854168432      5.3899999999999988      19.056527752977455
   240   1      28.584791629466181      6.7374999999999998      19.056527752977455
   241   2       22.86783330357294      10.779999999999998                       0
   242   1      24.773486078870693      12.127499999999998                       0
   243   2      26.679138854168436      10.779999999999998      3.8113055505954918
   244   1      28.584791629466185      12.127499999999998      3.8113055505954914
   245   2      30.490444404763924      10.779999999999998      7.6226111011909836
   246   1      24.773486078870693      12.127499999999998      7.6226111011909827
   247   2      26.679138854168436      10.779999999999998      11.433916651786475
   248   1      28.584791629466185      12.127499999999998      11.433916651786475
   249   2      30.490444404763924      10.779999999999998      15.245222202381967
   250   1      24.773486078870693      12.127499999999998      15.245222202381965
   251   2      26.679138854168432      10.779999999999998      19.056527752977455
   252   1      28.584791629466181      12.127499999999998      19.056527752977455
   253   2       22.86783330357294      16.169999999999995                       0
   254   1      24.773486078870693      17.517500000000002                       0
   255   2      26.679138854168436      16.169999999999995      3.8113055505954918
   256   1      28.584791629466185      17.517500000000002      3.8113055505954914
   257   2      30.490444404763924      16.169999999999995      7.6226111011909836
   258   1      24.773486078870693      17.517500000000002      7.6226111011909827
   259   2      26.679138854168436      16.169999999999995      11.433916651786475
   260   1      28.584791629466185      17.517500000000002      11.433916651786475
   261   2      30.490444404763924      16.169999999999995      15.245222202381967
   262   1      24.773486078870693      17.517500000000002      15.245222202381965
   263   2      26.679138854168432      16.169999999999995      19.056527752977455
   264   1      28.584791629466181      17.517500000000002      19.056527752977455
   265   2       22.86783330357294      21.559999999999995                       0
   266   1      24.773486078870693      22.907499999999995                       0
   267   2      26.679138854168436      21.559999999999995      3.8113055505954918
   268   1      28.584791629466185      22.907499999999995      3.8113055505954914
   269   2      30.490444404763924      21.559999999999995      7.6226111011909836
   270   1      24.773486078870693      22.907499999999995      7.6226111011909827
   271   2      26.679138854168436      21.559999999999995      11.433916651786475
   272   1      28.584791629466185      22.907499999999995      11.433916651786475
   273   2      30.490444404763924      21.559999999999995      15.245222202381967
   274   1      24.773486078870693      22.907499999999995      15.245222202381965
   275   2      26.679138854168432      21.559999999999995      19.056527752977455
   276   1      28.584791629466181      22.907499999999995      19.056527752977455
   277   2       22.86783330357294      26.949999999999999                       0
   278   1      24.773486078870693      28.297499999999996                       0
   279   2      26.679138854168436      26.949999999999999      3.8113055505954918
   280   1      28.584791629466185      28.297499999999996      3.8113055505954914
   281   2      30.490444404763924      26.949999999999999      7.6226111011909836
   282   1      24.773486078870693      28.297499999999996      7.6226111011909827
   283   2      26.679138854168436      26.949999999999999      11.433916651786475
   284   1      28.584791629466185      28.297499999999996      11.433916651786475
   285   2      30.490444404763924      26.949999999999999      15.245222202381967
   286   1      24.773486078870693      28.297499999999996      15.245222202381965
   287   2      26.679138854168432      26.949999999999999      19.056527752977455
   288   1      28.584791629466181      28.297499999999996      19.056527752977455
   289   2      30.490444404763924                       0                       0
   290   1      32.396097180061666      1.3474999999999999                       0
   291   2      34.301749955359412                       0      3.8113055505954918
   292   1      36.207402730657158      1.3474999999999999      3.8113055505954914
   293   2      38.113055505954904                       0      7.6226111011909836
   294   1      32.396097180061666      1.3474999999999999      7.6226111011909827
   295   2      34.301749955359412                       0      11.433916651786475
   296   1      36.207402730657158      1.3474999999999999      11.433916651786475
   297   2      38.113055505954904                       0      15.245222202381967
   298   1      32.396097180061666      1.3474999999999999      15.245222202381965
   299   2      34.301749955359412                       0      19.056527752977455
   300   1      36.207402730657158      1.3474999999999999      19.056527752977455
   301   2      30.490444404763924      5.3899999999999988                       0
   302   1      32.396097180061666      6.7374999999999998                       0
   303   2      34.301749955359412      5.3899999999999988      3.8113055505954918
   304   1      36.207402730657158      6.7374999999999998      3.8113055505954914
   305   2      38.113055505954904      5.3899999999999988      7.6226111011909836
   306   1      32.396097180061666      6.7374999999999998      7.6226111011909827
   307   2      34.301749955359412      5.3899999999999988      11.433916651786475
   308   1      36.207402730657158      6.7374999999999998      11.433916651786475
   309   2      38.113055505954904      5.3899999999999988      15.245222202381967
   310   1      32.396097180061666      6.7374999999999998      15.245222202381965
   311   2      34.301749955359412      5.3899999999999988      19.056527752977455
   312   1      36.207402730657158      6.7374999999999998      19.056527752977455
   313   2      30.490444404763924      10.779999999999998                       0
   314   1      32.396097180061666      12.127499999999998                       0
   315   2      34.301749955359412      10.779999999999998      3.8113055505954918
   316   1      36.207402730657158      12.127499999999998      3.8113055505954914
   317   2      38.113055505954904      10.779999999999998      7.6226111011909836
   318   1      32.396097180061666      12.127499999999998      7.6226111011909827
   319   2      34.301749955359412      10.779999999999998      11.433916651786475
   320   1      36.207402730657158      12.127499999999998      11.433916651786475
   321   2      38.113055505954904      10.779999999999998      15.245222202381967
   322   1      32.396097180061666      12.127499999999998      15.245222202381965
   323   2      34.301749955359412      10.779999999999998      19.056527752977455
   324   1      36.207402730657158      12.127499999999998      19.056527752977455
   325   2      30.490444404763924      16.169999999999995                       0
   326   1      32.396097180061666      17.517500000000002                       0
   327   2      34.301749955359412      16.169999999999995      3.8113055505954918
   328   1      36.207402730657158      17.517500000000002      3.8113055505954914
   329   2      38.113055505954904      16.169999999999995      7.6226111011909836
   330   1      32.396097180061666      17.517500000000002      7.6226111011909827
   331   2      34.301749955359412      16.169999999999995      11.433916651786475
   332   1      36.207402730657158      17.517500000000002      11.433916651786475
   333   2      38.113055505954904      16.169999999999995      15.245222202381967
   334   1      32.396097180061666      17.517500000000002      15.245222202381965
   335   2      34.301749955359412      16.169999999999995      19.056527752977455
   336   1      36.207402730657158      17.517500000000002      19.056527752977455
   337   2      30.490444404763924      21.559999999999995                       0
   338   1      32.396097180061666      22.907499999999995                       0
   339   2      34.301749955359412      21.559999999999995      3.8113055505954918
   340   1      36.207402730657158      22.907499999999995      3.8113055505954914
   341   2      38.113055505954904      21.559999999999995      7.6226111011909836
   342   1      32.396097180061666      22.907499999999995      7.6226111011909827
   343   2      34.301749955359412      21.559999999999995      11.433916651786475
   344   1      36.207402730657158      22.907499999999995      11.433916651786475
   345   2      38.113055505954904      21.559999999999995      15.245222202381967
   346   1      32.396097180061666      22.907499999999995      15.245222202381965
   347   2      34.301749955359412      21.559999999999995      19.056527752977455
   348   1      36.207402730657158      22.907499999999995      19.056527752977455
   349   2      30.490444404763924      26.949999999999999                       0
   350   1      32.396097180061666      28.297499999999996                       0
   351   2      34.301749955359412      26.949999999999999      3.8113055505954918
   352   1      36.207402730657158      28.297499999999996      3.8113055505954914
   353   2      38.113055505954904      26.949999999999999      7.6226111011909836
   354   1      32.396097180061666      28.297499999999996      7.6226111011909827
   355   2      34.301749955359412      26.949999999999999      11.433916651786475
   356   1      36.207402730657158      28.297499999999996      11.433916651786475
   357   2      38.113055505954904      26.949999999999999      15.245222202381967
   358   1      32.396097180061666      28.297499999999996      15.245222202381965
   359   2      34.301749955359412      26.949999999999999      19.056527752977455