ZnS_slab_110_6x6x6.vacuum.lammps (written by ASE) 

432 	 atoms 
2  atom types
0.0      45.735666607145887  xlo xhi
0.0      32.339999999999996  ylo yhi
0.0      59.056527752977459  zlo zhi


Atoms 

     1   2                       0                       0                      20
     2   1      1.9056527752977452      1.3474999999999999                      20
     3   2      3.8113055505954905                       0      23.811305550595488
     4   1      5.7169583258932359      1.3474999999999999      23.811305550595488
     5   2       7.622611101190981                       0      27.622611101190984
     6   1      1.9056527752977455      1.3474999999999999      27.622611101190984
     7   2      3.8113055505954909                       0      31.433916651786472
     8   1      5.7169583258932359      1.3474999999999999      31.433916651786472
     9   2       7.622611101190981                       0      35.245222202381967
    10   1      1.9056527752977455      1.3474999999999999      35.245222202381967
    11   2      3.8113055505954874                       0      39.056527752977459
    12   1      5.7169583258932342      1.3474999999999999      39.056527752977459
    13   2                       0      5.3899999999999988                      20
    14   1      1.9056527752977452      6.7374999999999998                      20
    15   2      3.8113055505954905      5.3899999999999988      23.811305550595488
    16   1      5.7169583258932359      6.7374999999999998      23.811305550595488
    17   2       7.622611101190981      5.3899999999999988      27.622611101190984
    18   1      1.9056527752977455      6.7374999999999998      27.622611101190984
    19   2      3.8113055505954909      5.3899999999999988      31.433916651786472
    20   1      5.7169583258932359      6.7374999999999998      31.433916651786472
    21   2       7.622611101190981      5.3899999999999988      35.245222202381967
    22   1      1.9056527752977455      6.7374999999999998      35.245222202381967
    23   2      3.8113055505954874      5.3899999999999988      39.056527752977459
    24   1      5.7169583258932342      6.7374999999999998      39.056527752977459
    25   2                       0      10.779999999999998                      20
    26   1      1.9056527752977452      12.127499999999998                      20
    27   2      3.8113055505954905      10.779999999999998      23.811305550595488
    28   1      5.7169583258932359      12.127499999999998      23.811305550595488
    29   2       7.622611101190981      10.779999999999998      27.622611101190984
    30   1      1.9056527752977455      12.127499999999998      27.622611101190984
    31   2      3.8113055505954909      10.779999999999998      31.433916651786472
    32   1      5.7169583258932359      12.127499999999998      31.433916651786472
    33   2       7.622611101190981      10.779999999999998      35.245222202381967
    34   1      1.9056527752977455      12.127499999999998      35.245222202381967
    35   2      3.8113055505954874      10.779999999999998      39.056527752977459
    36   1      5.7169583258932342      12.127499999999998      39.056527752977459
    37   2                       0      16.169999999999995                      20
    38   1      1.9056527752977452      17.517500000000002                      20
    39   2      3.8113055505954905      16.169999999999995      23.811305550595488
    40   1      5.7169583258932359      17.517500000000002      23.811305550595488
    41   2       7.622611101190981      16.169999999999995      27.622611101190984
    42   1      1.9056527752977455      17.517500000000002      27.622611101190984
    43   2      3.8113055505954909      16.169999999999995      31.433916651786472
    44   1      5.7169583258932359      17.517500000000002      31.433916651786472
    45   2       7.622611101190981      16.169999999999995      35.245222202381967
    46   1      1.9056527752977455      17.517500000000002      35.245222202381967
    47   2      3.8113055505954874      16.169999999999995      39.056527752977459
    48   1      5.7169583258932342      17.517500000000002      39.056527752977459
    49   2                       0      21.559999999999995                      20
    50   1      1.9056527752977452      22.907499999999995                      20
    51   2      3.8113055505954905      21.559999999999995      23.811305550595488
    52   1      5.7169583258932359      22.907499999999995      23.811305550595488
    53   2       7.622611101190981      21.559999999999995      27.622611101190984
    54   1      1.9056527752977455      22.907499999999995      27.622611101190984
    55   2      3.8113055505954909      21.559999999999995      31.433916651786472
    56   1      5.7169583258932359      22.907499999999995      31.433916651786472
    57   2       7.622611101190981      21.559999999999995      35.245222202381967
    58   1      1.9056527752977455      22.907499999999995      35.245222202381967
    59   2      3.8113055505954874      21.559999999999995      39.056527752977459
    60   1      5.7169583258932342      22.907499999999995      39.056527752977459
    61   2                       0      26.949999999999999                      20
    62   1      1.9056527752977452      28.297499999999996                      20
    63   2      3.8113055505954905      26.949999999999999      23.811305550595488
    64   1      5.7169583258932359      28.297499999999996      23.811305550595488
    65   2       7.622611101190981      26.949999999999999      27.622611101190984
    66   1      1.9056527752977455      28.297499999999996      27.622611101190984
    67   2      3.8113055505954909      26.949999999999999      31.433916651786472
    68   1      5.7169583258932359      28.297499999999996      31.433916651786472
    69   2       7.622611101190981      26.949999999999999      35.245222202381967
    70   1      1.9056527752977455      28.297499999999996      35.245222202381967
    71   2      3.8113055505954874      26.949999999999999      39.056527752977459
    72   1      5.7169583258932342      28.297499999999996      39.056527752977459
    73   2       7.622611101190981                       0                      20
    74   1       9.528263876488726      1.3474999999999999                      20
    75   2      11.433916651786472                       0      23.811305550595488
    76   1      13.339569427084218      1.3474999999999999      23.811305550595488
    77   2      15.245222202381962                       0      27.622611101190984
    78   1       9.528263876488726      1.3474999999999999      27.622611101190984
    79   2      11.433916651786472                       0      31.433916651786472
    80   1      13.339569427084218      1.3474999999999999      31.433916651786472
    81   2      15.245222202381962                       0      35.245222202381967
    82   1       9.528263876488726      1.3474999999999999      35.245222202381967
    83   2       11.43391665178647                       0      39.056527752977459
    84   1      13.339569427084216      1.3474999999999999      39.056527752977459
    85   2       7.622611101190981      5.3899999999999988                      20
    86   1       9.528263876488726      6.7374999999999998                      20
    87   2      11.433916651786472      5.3899999999999988      23.811305550595488
    88   1      13.339569427084218      6.7374999999999998      23.811305550595488
    89   2      15.245222202381962      5.3899999999999988      27.622611101190984
    90   1       9.528263876488726      6.7374999999999998      27.622611101190984
    91   2      11.433916651786472      5.3899999999999988      31.433916651786472
    92   1      13.339569427084218      6.7374999999999998      31.433916651786472
    93   2      15.245222202381962      5.3899999999999988      35.245222202381967
    94   1       9.528263876488726      6.7374999999999998      35.245222202381967
    95   2       11.43391665178647      5.3899999999999988      39.056527752977459
    96   1      13.339569427084216      6.7374999999999998      39.056527752977459
    97   2       7.622611101190981      10.779999999999998                      20
    98   1       9.528263876488726      12.127499999999998                      20
    99   2      11.433916651786472      10.779999999999998      23.811305550595488
   100   1      13.339569427084218      12.127499999999998      23.811305550595488
   101   2      15.245222202381962      10.779999999999998      27.622611101190984
   102   1       9.528263876488726      12.127499999999998      27.622611101190984
   103   2      11.433916651786472      10.779999999999998      31.433916651786472
   104   1      13.339569427084218      12.127499999999998      31.433916651786472
   105   2      15.245222202381962      10.779999999999998      35.245222202381967
   106   1       9.528263876488726      12.127499999999998      35.245222202381967
   107   2       11.43391665178647      10.779999999999998      39.056527752977459
   108   1      13.339569427084216      12.127499999999998      39.056527752977459
   109   2       7.622611101190981      16.169999999999995                      20
   110   1       9.528263876488726      17.517500000000002                      20
   111   2      11.433916651786472      16.169999999999995      23.811305550595488
   112   1      13.339569427084218      17.517500000000002      23.811305550595488
   113   2      15.245222202381962      16.169999999999995      27.622611101190984
   114   1       9.528263876488726      17.517500000000002      27.622611101190984
   115   2      11.433916651786472      16.169999999999995      31.433916651786472
   116   1      13.339569427084218      17.517500000000002      31.433916651786472
   117   2      15.245222202381962      16.169999999999995      35.245222202381967
   118   1       9.528263876488726      17.517500000000002      35.245222202381967
   119   2       11.43391665178647      16.169999999999995      39.056527752977459
   120   1      13.339569427084216      17.517500000000002      39.056527752977459
   121   2       7.622611101190981      21.559999999999995                      20
   122   1       9.528263876488726      22.907499999999995                      20
   123   2      11.433916651786472      21.559999999999995      23.811305550595488
   124   1      13.339569427084218      22.907499999999995      23.811305550595488
   125   2      15.245222202381962      21.559999999999995      27.622611101190984
   126   1       9.528263876488726      22.907499999999995      27.622611101190984
   127   2      11.433916651786472      21.559999999999995      31.433916651786472
   128   1      13.339569427084218      22.907499999999995      31.433916651786472
   129   2      15.245222202381962      21.559999999999995      35.245222202381967
   130   1       9.528263876488726      22.907499999999995      35.245222202381967
   131   2       11.43391665178647      21.559999999999995      39.056527752977459
   132   1      13.339569427084216      22.907499999999995      39.056527752977459
   133   2       7.622611101190981      26.949999999999999                      20
   134   1       9.528263876488726      28.297499999999996                      20
   135   2      11.433916651786472      26.949999999999999      23.811305550595488
   136   1      13.339569427084218      28.297499999999996      23.811305550595488
   137   2      15.245222202381962      26.949999999999999      27.622611101190984
   138   1       9.528263876488726      28.297499999999996      27.622611101190984
   139   2      11.433916651786472      26.949999999999999      31.433916651786472
   140   1      13.339569427084218      28.297499999999996      31.433916651786472
   141   2      15.245222202381962      26.949999999999999      35.245222202381967
   142   1       9.528263876488726      28.297499999999996      35.245222202381967
   143   2       11.43391665178647      26.949999999999999      39.056527752977459
   144   1      13.339569427084216      28.297499999999996      39.056527752977459
   145   2      15.245222202381962                       0                      20
   146   1      17.150874977679706      1.3474999999999999                      20
   147   2      19.056527752977452                       0      23.811305550595488
   148   1      20.962180528275198      1.3474999999999999      23.811305550595488
   149   2       22.86783330357294                       0      27.622611101190984
   150   1      17.150874977679706      1.3474999999999999      27.622611101190984
   151   2      19.056527752977452                       0      31.433916651786472
   152   1      20.962180528275198      1.3474999999999999      31.433916651786472
   153   2       22.86783330357294                       0      35.245222202381967
   154   1      17.150874977679706      1.3474999999999999      35.245222202381967
   155   2      19.056527752977448                       0      39.056527752977459
   156   1      20.962180528275194      1.3474999999999999      39.056527752977459
   157   2      15.245222202381962      5.3899999999999988                      20
   158   1      17.150874977679706      6.7374999999999998                      20
   159   2      19.056527752977452      5.3899999999999988      23.811305550595488
   160   1      20.962180528275198      6.7374999999999998      23.811305550595488
   161   2       22.86783330357294      5.3899999999999988      27.622611101190984
   162   1      17.150874977679706      6.7374999999999998      27.622611101190984
   163   2      19.056527752977452      5.3899999999999988      31.433916651786472
   164   1      20.962180528275198      6.7374999999999998      31.433916651786472
   165   2       22.86783330357294      5.3899999999999988      35.245222202381967
   166   1      17.150874977679706      6.7374999999999998      35.245222202381967
   167   2      19.056527752977448      5.3899999999999988      39.056527752977459
   168   1      20.962180528275194      6.7374999999999998      39.056527752977459
   169   2      15.245222202381962      10.779999999999998                      20
   170   1      17.150874977679706      12.127499999999998                      20
   171   2      19.056527752977452      10.779999999999998      23.811305550595488
   172   1      20.962180528275198      12.127499999999998      23.811305550595488
   173   2       22.86783330357294      10.779999999999998      27.622611101190984
   174   1      17.150874977679706      12.127499999999998      27.622611101190984
   175   2      19.056527752977452      10.779999999999998      31.433916651786472
   176   1      20.962180528275198      12.127499999999998      31.433916651786472
   177   2       22.86783330357294      10.779999999999998      35.245222202381967
   178   1      17.150874977679706      12.127499999999998      35.245222202381967
   179   2      19.056527752977448      10.779999999999998      39.056527752977459
   180   1      20.962180528275194      12.127499999999998      39.056527752977459
   181   2      15.245222202381962      16.169999999999995                      20
   182   1      17.150874977679706      17.517500000000002                      20
   183   2      19.056527752977452      16.169999999999995      23.811305550595488
   184   1      20.962180528275198      17.517500000000002      23.811305550595488
   185   2       22.86783330357294      16.169999999999995      27.622611101190984
   186   1      17.150874977679706      17.517500000000002      27.622611101190984
   187   2      19.056527752977452      16.169999999999995      31.433916651786472
   188   1      20.962180528275198      17.517500000000002      31.433916651786472
   189   2       22.86783330357294      16.169999999999995      35.245222202381967
   190   1      17.150874977679706      17.517500000000002      35.245222202381967
   191   2      19.056527752977448      16.169999999999995      39.056527752977459
   192   1      20.962180528275194      17.517500000000002      39.056527752977459
   193   2      15.245222202381962      21.559999999999995                      20
   194   1      17.150874977679706      22.907499999999995                      20
   195   2      19.056527752977452      21.559999999999995      23.811305550595488
   196   1      20.962180528275198      22.907499999999995      23.811305550595488
   197   2       22.86783330357294      21.559999999999995      27.622611101190984
   198   1      17.150874977679706      22.907499999999995      27.622611101190984
   199   2      19.056527752977452      21.559999999999995      31.433916651786472
   200   1      20.962180528275198      22.907499999999995      31.433916651786472
   201   2       22.86783330357294      21.559999999999995      35.245222202381967
   202   1      17.150874977679706      22.907499999999995      35.245222202381967
   203   2      19.056527752977448      21.559999999999995      39.056527752977459
   204   1      20.962180528275194      22.907499999999995      39.056527752977459
   205   2      15.245222202381962      26.949999999999999                      20
   206   1      17.150874977679706      28.297499999999996                      20
   207   2      19.056527752977452      26.949999999999999      23.811305550595488
   208   1      20.962180528275198      28.297499999999996      23.811305550595488
   209   2       22.86783330357294      26.949999999999999      27.622611101190984
   210   1      17.150874977679706      28.297499999999996      27.622611101190984
   211   2      19.056527752977452      26.949999999999999      31.433916651786472
   212   1      20.962180528275198      28.297499999999996      31.433916651786472
   213   2       22.86783330357294      26.949999999999999      35.245222202381967
   214   1      17.150874977679706      28.297499999999996      35.245222202381967
   215   2      19.056527752977448      26.949999999999999      39.056527752977459
   216   1      20.962180528275194      28.297499999999996      39.056527752977459
   217   2       22.86783330357294                       0                      20
   218   1      24.773486078870693      1.3474999999999999                      20
   219   2      26.679138854168436                       0      23.811305550595488
   220   1      28.584791629466185      1.3474999999999999      23.811305550595488
   221   2      30.490444404763924                       0      27.622611101190984
   222   1      24.773486078870693      1.3474999999999999      27.622611101190984
   223   2      26.679138854168436                       0      31.433916651786472
   224   1      28.584791629466185      1.3474999999999999      31.433916651786472
   225   2      30.490444404763924                       0      35.245222202381967
   226   1      24.773486078870693      1.3474999999999999      35.245222202381967
   227   2      26.679138854168432                       0      39.056527752977459
   228   1      28.584791629466181      1.3474999999999999      39.056527752977459
   229   2       22.86783330357294      5.3899999999999988                      20
   230   1      24.773486078870693      6.7374999999999998                      20
   231   2      26.679138854168436      5.3899999999999988      23.811305550595488
   232   1      28.584791629466185      6.7374999999999998      23.811305550595488
   233   2      30.490444404763924      5.3899999999999988      27.622611101190984
   234   1      24.773486078870693      6.7374999999999998      27.622611101190984
   235   2      26.679138854168436      5.3899999999999988      31.433916651786472
   236   1      28.584791629466185      6.7374999999999998      31.433916651786472
   237   2      30.490444404763924      5.3899999999999988      35.245222202381967
   238   1      24.773486078870693      6.7374999999999998      35.245222202381967
   239   2      26.679138854168432      5.3899999999999988      39.056527752977459
   240   1      28.584791629466181      6.7374999999999998      39.056527752977459
   241   2       22.86783330357294      10.779999999999998                      20
   242   1      24.773486078870693      12.127499999999998                      20
   243   2      26.679138854168436      10.779999999999998      23.811305550595488
   244   1      28.584791629466185      12.127499999999998      23.811305550595488
   245   2      30.490444404763924      10.779999999999998      27.622611101190984
   246   1      24.773486078870693      12.127499999999998      27.622611101190984
   247   2      26.679138854168436      10.779999999999998      31.433916651786472
   248   1      28.584791629466185      12.127499999999998      31.433916651786472
   249   2      30.490444404763924      10.779999999999998      35.245222202381967
   250   1      24.773486078870693      12.127499999999998      35.245222202381967
   251   2      26.679138854168432      10.779999999999998      39.056527752977459
   252   1      28.584791629466181      12.127499999999998      39.056527752977459
   253   2       22.86783330357294      16.169999999999995                      20
   254   1      24.773486078870693      17.517500000000002                      20
   255   2      26.679138854168436      16.169999999999995      23.811305550595488
   256   1      28.584791629466185      17.517500000000002      23.811305550595488
   257   2      30.490444404763924      16.169999999999995      27.622611101190984
   258   1      24.773486078870693      17.517500000000002      27.622611101190984
   259   2      26.679138854168436      16.169999999999995      31.433916651786472
   260   1      28.584791629466185      17.517500000000002      31.433916651786472
   261   2      30.490444404763924      16.169999999999995      35.245222202381967
   262   1      24.773486078870693      17.517500000000002      35.245222202381967
   263   2      26.679138854168432      16.169999999999995      39.056527752977459
   264   1      28.584791629466181      17.517500000000002      39.056527752977459
   265   2       22.86783330357294      21.559999999999995                      20
   266   1      24.773486078870693      22.907499999999995                      20
   267   2      26.679138854168436      21.559999999999995      23.811305550595488
   268   1      28.584791629466185      22.907499999999995      23.811305550595488
   269   2      30.490444404763924      21.559999999999995      27.622611101190984
   270   1      24.773486078870693      22.907499999999995      27.622611101190984
   271   2      26.679138854168436      21.559999999999995      31.433916651786472
   272   1      28.584791629466185      22.907499999999995      31.433916651786472
   273   2      30.490444404763924      21.559999999999995      35.245222202381967
   274   1      24.773486078870693      22.907499999999995      35.245222202381967
   275   2      26.679138854168432      21.559999999999995      39.056527752977459
   276   1      28.584791629466181      22.907499999999995      39.056527752977459
   277   2       22.86783330357294      26.949999999999999                      20
   278   1      24.773486078870693      28.297499999999996                      20
   279   2      26.679138854168436      26.949999999999999      23.811305550595488
   280   1      28.584791629466185      28.297499999999996      23.811305550595488
   281   2      30.490444404763924      26.949999999999999      27.622611101190984
   282   1      24.773486078870693      28.297499999999996      27.622611101190984
   283   2      26.679138854168436      26.949999999999999      31.433916651786472
   284   1      28.584791629466185      28.297499999999996      31.433916651786472
   285   2      30.490444404763924      26.949999999999999      35.245222202381967
   286   1      24.773486078870693      28.297499999999996      35.245222202381967
   287   2      26.679138854168432      26.949999999999999      39.056527752977459
   288   1      28.584791629466181      28.297499999999996      39.056527752977459
   289   2      30.490444404763924                       0                      20
   290   1      32.396097180061666      1.3474999999999999                      20
   291   2      34.301749955359412                       0      23.811305550595488
   292   1      36.207402730657158      1.3474999999999999      23.811305550595488
   293   2      38.113055505954904                       0      27.622611101190984
   294   1      32.396097180061666      1.3474999999999999      27.622611101190984
   295   2      34.301749955359412                       0      31.433916651786472
   296   1      36.207402730657158      1.3474999999999999      31.433916651786472
   297   2      38.113055505954904                       0      35.245222202381967
   298   1      32.396097180061666      1.3474999999999999      35.245222202381967
   299   2      34.301749955359412                       0      39.056527752977459
   300   1      36.207402730657158      1.3474999999999999      39.056527752977459
   301   2      30.490444404763924      5.3899999999999988                      20
   302   1      32.396097180061666      6.7374999999999998                      20
   303   2      34.301749955359412      5.3899999999999988      23.811305550595488
   304   1      36.207402730657158      6.7374999999999998      23.811305550595488
   305   2      38.113055505954904      5.3899999999999988      27.622611101190984
   306   1      32.396097180061666      6.7374999999999998      27.622611101190984
   307   2      34.301749955359412      5.3899999999999988      31.433916651786472
   308   1      36.207402730657158      6.7374999999999998      31.433916651786472
   309   2      38.113055505954904      5.3899999999999988      35.245222202381967
   310   1      32.396097180061666      6.7374999999999998      35.245222202381967
   311   2      34.301749955359412      5.3899999999999988      39.056527752977459
   312   1      36.207402730657158      6.7374999999999998      39.056527752977459
   313   2      30.490444404763924      10.779999999999998                      20
   314   1      32.396097180061666      12.127499999999998                      20
   315   2      34.301749955359412      10.779999999999998      23.811305550595488
   316   1      36.207402730657158      12.127499999999998      23.811305550595488
   317   2      38.113055505954904      10.779999999999998      27.622611101190984
   318   1      32.396097180061666      12.127499999999998      27.622611101190984
   319   2      34.301749955359412      10.779999999999998      31.433916651786472
   320   1      36.207402730657158      12.127499999999998      31.433916651786472
   321   2      38.113055505954904      10.779999999999998      35.245222202381967
   322   1      32.396097180061666      12.127499999999998      35.245222202381967
   323   2      34.301749955359412      10.779999999999998      39.056527752977459
   324   1      36.207402730657158      12.127499999999998      39.056527752977459
   325   2      30.490444404763924      16.169999999999995                      20
   326   1      32.396097180061666      17.517500000000002                      20
   327   2      34.301749955359412      16.169999999999995      23.811305550595488
   328   1      36.207402730657158      17.517500000000002      23.811305550595488
   329   2      38.113055505954904      16.169999999999995      27.622611101190984
   330   1      32.396097180061666      17.517500000000002      27.622611101190984
   331   2      34.301749955359412      16.169999999999995      31.433916651786472
   332   1      36.207402730657158      17.517500000000002      31.433916651786472
   333   2      38.113055505954904      16.169999999999995      35.245222202381967
   334   1      32.396097180061666      17.517500000000002      35.245222202381967
   335   2      34.301749955359412      16.169999999999995      39.056527752977459
   336   1      36.207402730657158      17.517500000000002      39.056527752977459
   337   2      30.490444404763924      21.559999999999995                      20
   338   1      32.396097180061666      22.907499999999995                      20
   339   2      34.301749955359412      21.559999999999995      23.811305550595488
   340   1      36.207402730657158      22.907499999999995      23.811305550595488
   341   2      38.113055505954904      21.559999999999995      27.622611101190984
   342   1      32.396097180061666      22.907499999999995      27.622611101190984
   343   2      34.301749955359412      21.559999999999995      31.433916651786472
   344   1      36.207402730657158      22.907499999999995      31.433916651786472
   345   2      38.113055505954904      21.559999999999995      35.245222202381967
   346   1      32.396097180061666      22.907499999999995      35.245222202381967
   347   2      34.301749955359412      21.559999999999995      39.056527752977459
   348   1      36.207402730657158      22.907499999999995      39.056527752977459
   349   2      30.490444404763924      26.949999999999999                      20
   350   1      32.396097180061666      28.297499999999996                      20
   351   2      34.301749955359412      26.949999999999999      23.811305550595488
   352   1      36.207402730657158      28.297499999999996      23.811305550595488
   353   2      38.113055505954904      26.949999999999999      27.622611101190984
   354   1      32.396097180061666      28.297499999999996      27.622611101190984
   355   2      34.301749955359412      26.949999999999999      31.433916651786472
   356   1      36.207402730657158      28.297499999999996      31.433916651786472
   357   2      38.113055505954904      26.949999999999999      35.245222202381967
   358   1      32.396097180061666      28.297499999999996      35.245222202381967
   359   2      34.301749955359412      26.949999999999999      39.056527752977459