ITEM: TIMESTEP
10000
ITEM: NUMBER OF ATOMS
122
ITEM: BOX BOUNDS pp pp pp
0.0000000000000000e+00 2.0000000000000000e+01
0.0000000000000000e+00 2.0000000000000000e+01
0.0000000000000000e+00 2.0000000000000000e+01
ITEM: ATOMS id type xu yu zu vx vy vz
63 6 0.643967 6.37232 2.91122 -0.00471366 -0.00298363 0.00115847
15 5 0.428072 5.53007 0.13679 0.00283565 0.00824939 0.00883529
35 6 -9.45614 1.47822 4.067 0.00933968 -0.00110159 0.00280812
2 1 -9.79299 2.48356 3.81797 0.00888589 -0.00137733 0.00309744
37 6 -8.44626 3.04675 5.41546 0.0116777 -0.00229324 -0.003028
67 6 -8.19281 4.73546 1.96809 0.00559933 -0.00123038 0.00155825
31 1 -8.99652 4.38861 2.61706 0.00366096 0.000229982 0.000335846
4 2 -8.7132 4.64036 4.0504 0.00135842 0.000532339 -0.00024825
5 3 -7.38495 4.9019 4.41672 0.00427232 -0.00235592 -0.00550649
32 6 -8.2759 2.34912 2.31651 0.00361646 0.00054145 -0.00428398
1 1 -9.21731 2.87337 2.46744 0.00484081 0.000842554 0.00157234
3 1 -9.23625 3.50713 4.82047 0.00586447 -0.00167402 0.00450674
68 6 -9.92065 4.90726 2.35888 0.00429263 0.000486339 -0.00164628
33 6 -9.90364 2.64477 1.65216 0.0010342 0.00334452 0.00395362
38 6 -7.84455 6.54745 5.63443 -0.000657957 -0.00260106 -0.0075501
6 3 -7.08733 6.00527 5.21786 0.00119628 -0.000730319 -0.00635304
34 6 -10.8835 2.51685 3.80259 0.00860163 -0.00102805 0.00382788
36 6 -10.0293 3.84708 5.48652 0.00713787 -0.00654836 0.00837152
66 6 -6.52502 3.24352 3.45084 0.000615743 -0.00954362 0.000248866
30 3 -6.35054 4.10957 3.94953 0.00123276 -0.00791991 -0.00331738
11 3 -2.60377 6.05676 3.55194 -0.00509884 0.0012091 -0.00397641
9 3 -3.48759 6.31322 4.62742 -0.00211537 0.000315548 -0.00290984
28 3 -1.26061 6.3659 3.74346 -0.00573556 -0.000513159 -0.000822452
8 3 -4.75969 5.74587 4.72453 6.27537e-05 -0.00359051 -0.000821547
12 3 -2.94636 5.60654 2.25239 -0.00541904 -0.0044575 -0.000571982
65 6 -4.30591 3.92363 3.76185 0.00123372 -0.0113237 0.0104349
29 3 -5.04622 4.52636 4.11536 0.000550204 -0.00802459 0.00352896
27 3 -0.33999 6.19581 2.71098 -0.0049711 -0.000819292 0.0015629
40 6 -3.91612 5.43156 2.00562 -0.00420361 -0.0116516 0.00043699
13 3 -2.03195 5.48265 1.20341 -0.00245377 0.000778378 0.00169992
14 3 -0.702666 5.76928 1.4342 -0.00399264 0.00330337 0.00232947
7 3 -5.7752 6.42837 5.38829 0.000406732 -0.00107706 -0.0048975
41 6 -2.33462 5.17648 0.277532 -0.000380844 0.00319279 0.000725518
64 6 -0.916954 6.68185 4.65013 -0.00718233 0.00178144 -0.000739405
10 4 -3.13828 7.16415 5.48166 -0.00215474 -0.000776129 -0.00124489
39 6 -5.58666 7.2767 5.92234 -0.00278329 -0.00053014 -0.00470476
115 5 12.4056 13.4565 6.28958 0.00441031 0.00585211 0.00276287
120 5 10.383 14.321 5.47787 -0.00406296 -0.0033123 0.00116833
87 3 10.6771 14.482 6.53673 -0.00046153 -0.000625059 -0.000272897
121 5 11.1756 15.4468 6.43124 -0.00172787 -0.00151286 -0.00356909
107 5 12.0076 1.16935 9.116 0.00563867 -0.00603364 -0.0033284
108 5 12.1975 2.07508 10.4683 0.00184831 0.000939509 0.000131827
92 5 10.3152 3.821 12.4832 -0.00846237 0.0042493 0.007215
89 5 7.82647 4.86688 10.7806 -0.00557229 -0.00303331 -0.00120681
71 3 8.69958 4.16566 10.9915 -0.000935195 -0.000177048 -0.00291822
72 3 9.79951 4.68785 11.979 -0.00245563 0.00159587 -0.00353886
74 3 10.78 5.92384 11.8 -0.00312343 0.00152566 0.00168685
95 5 11.7624 5.49372 11.705 -0.00526483 -0.000491927 0.00405181
73 3 8.9058 2.95166 9.99218 0.00409314 0.00176547 -0.00600439
75 3 10.2214 2.35989 9.34997 0.00606063 0.000946399 -0.00312394
93 5 8.38121 3.27215 9.09478 0.00622768 0.00446165 -0.00908916
98 5 10.6886 3.25137 9.0454 0.00561547 -0.000522076 -0.00786652
80 3 11.4247 1.496 9.97417 0.00493331 -0.00129802 -0.00289373
86 3 11.3131 0.152284 10.7276 -0.0027586 0.000787885 0.00169681
97 5 9.89253 1.97134 8.36181 0.0101833 0.000232122 -0.00352095
96 5 10.8401 6.44484 12.7684 -0.00244895 0.00295663 0.00183099
105 5 11.1558 6.50454 9.71695 -0.00198507 0.00495797 0.000611751
94 5 8.26787 2.14968 10.3374 0.0117931 -0.00465898 -0.00424153
88 4 11.8125 0.0961911 12.1257 -0.00554572 0.00292964 0.00335588
70 2 11.2219 0.576997 13.1257 -0.00603607 0.0106088 0.000231025
91 5 9.15433 5.05587 12.7574 -0.00418716 0.00610194 -0.00946713
90 5 8.19422 3.57232 11.7335 0.00507789 -5.18397e-05 0.00178395
58 6 5.12513 10.9198 -9.40973 -0.00499462 0.00463203 -0.00588264
54 6 3.80867 7.61465 -8.48738 0.00767359 0.000376148 -0.00117617
22 1 3.25044 8.34884 -7.90751 0.00165451 -0.000894268 -0.00324605
55 6 2.22642 8.40395 -8.27639 0.00461925 -0.00570511 -0.0105827
24 1 4.46914 10.0507 -9.50547 0.00113868 0.000544399 -0.00385582
59 6 5.02698 9.21454 -9.93166 0.00989778 0.000326675 0.00502569
23 1 3.98922 9.7044 -8.07557 -0.00596604 0.00367704 -0.00481887
57 6 4.90238 9.68394 -7.48142 -0.0103891 0.0176033 0.0019389
25 1 3.34992 10.3989 -10.4807 -0.000715695 -0.00509153 -0.00348702
61 6 2.39454 10.0414 -10.0966 -0.00395537 -0.00398177 -0.0064559
62 7 4.02448 12.1069 -11.9391 -0.0189759 -0.0110522 -0.0123476
26 5 3.27363 12.1747 -10.8058 -0.000477245 -0.0059531 -0.000958081
56 6 3.36323 10.5188 -7.7101 -0.0163792 0.00137297 -0.0152027
60 6 3.572 9.91737 -11.434 0.0116623 0.00378262 -0.00570379
109 5 11.0217 11.36 6.90267 -0.00222033 0.00248525 0.00144877
79 3 10.8983 6.99547 10.6623 -0.00129761 0.00058508 0.00175865
101 5 10.1371 11.2026 8.5722 0.000481223 -0.000986409 -0.000299024
113 5 9.34452 7.57626 9.31595 -0.00287859 -0.00111097 0.00188559
110 5 12.6749 11.4759 7.2813 -0.00131176 -4.34733e-05 0.00250636
116 5 8.20874 9.12155 10.2674 -0.000761995 -0.00196078 -0.00159701
83 4 9.77072 7.86349 10.2114 -0.000937256 -0.000395598 0.00168152
112 5 8.47149 10.6295 11.6926 0.000757765 -0.00404154 0.00332429
104 5 9.74431 12.095 12.0439 0.00253859 -0.000677139 0.00205451
76 3 11.1757 11.8841 10.4311 -0.000574079 -0.0035314 0.00163438
77 3 11.1442 11.3353 8.91718 -0.000489535 -0.00112136 0.000441117
78 3 10.3489 11.2739 11.6415 0.000524376 -0.00235485 0.00286554
82 3 9.38763 10.0608 11.7085 0.000706408 -0.00256759 0.00353255
85 4 9.13005 9.01995 10.6947 -0.00151024 -0.0019304 0.00308589
99 5 10.7967 12.9098 10.4811 -0.00190703 -0.00375312 0.00337629
100 5 12.2156 11.8859 10.8262 0.000582777 -0.0061018 -0.00081535
102 5 11.5476 10.3285 8.955 -0.00555112 -0.00357765 -0.000299361
106 5 11.7928 7.55605 10.9847 -0.000646323 -0.000516951 -0.00139772
111 5 9.4292 9.61707 12.6939 0.00202832 -0.00333586 0.00332951
81 3 11.6955 11.943 7.5587 -0.000498155 0.0016368 0.00111029
103 5 10.9795 11.1533 12.5041 -0.00126362 -0.000272866 0.00385238
84 3 11.7561 13.5088 7.13716 0.00147725 0.00317619 0.00206083
119 5 9.85207 14.6751 7.2344 0.00240963 0.00311179 0.00120871
118 5 10.3769 -0.366797 10.6302 -0.00119216 -0.00443016 -0.00710807
114 5 12.2986 14.1633 7.83437 -0.00462764 0.00832819 0.00458333
69 1 12.9241 -0.641366 12.3593 0.000783005 0.0096411 0.000563602
117 5 11.968 -0.465395 10.126 0.00497456 0.0032745 0.00716137
122 6 13.2535 -0.784254 13.2724 0.00982414 0.0128742 -0.00213731
45 6 0.233741 5.76642 -2.57848 0.0115489 -0.00210603 0.00383268
17 1 0.787242 6.61034 -2.16888 0.00633469 0.00177261 0.00232633
44 6 1.78772 6.26168 -1.90986 0.00853319 0.00842006 0.00631384
49 6 2.02404 6.1441 -4.40093 -0.00028308 -0.00229429 0.00321321
53 6 3.59829 6.78108 -6.51158 -0.00525489 0.00189407 2.41121e-06
43 6 0.442001 7.90208 -0.41984 -0.0103641 0.00371647 -0.000164277
19 1 2.03892 7.22491 -4.2657 -0.00318781 -0.00205139 -0.000532694
16 1 0.0446057 6.99088 -0.871488 -0.00220913 0.00123574 -0.000210528
48 6 2.98955 7.48665 -3.80295 -0.00151166 -0.00494139 -0.00319833
18 1 0.91824 7.66526 -3.28398 -0.000805889 0.00416886 0.00255029
20 1 1.97411 7.88656 -5.66119 -0.00560237 0.000609448 -0.00172112
47 6 1.18623 8.6161 -2.8266 0.00269419 0.00392628 0.00125772
51 6 1.70206 8.92754 -5.49899 -0.00450001 0.000361913 -0.000382334
21 1 3.28497 7.82242 -6.45708 -0.00806262 0.00288055 -0.00366538
52 6 4.04312 8.35496 -5.89037 -0.007512 0.00360016 -0.00569986
50 6 1.1854 7.39062 -6.23081 -0.00803954 0.000968077 0.00124832
42 6 -1.0252 7.0992 -1.05604 -0.00110184 -0.00513147 -0.00648314
46 6 -0.0412022 7.77316 -3.79286 -0.00342204 0.00577807 0.00707567
ITEM: TIMESTEP
10100
ITEM: NUMBER OF ATOMS
122
ITEM: BOX BOUNDS pp pp pp
0.0000000000000000e+00 2.0000000000000000e+01
0.0000000000000000e+00 2.0000000000000000e+01
0.0000000000000000e+00 2.0000000000000000e+01
ITEM: ATOMS id type xu yu zu vx vy vz
63 6 0.478857 6.66878 2.91093 -0.000774057 0.0027758 0.0031117
15 5 0.577763 5.90626 0.464523 0.00403118 0.00507624 0.00113829
35 6 -8.96724 1.36371 4.09403 0.00600343 -0.00605005 -0.00387811
2 1 -9.48484 2.30647 3.91356 0.00347766 -0.00670197 -4.26594e-05
37 6 -8.21759 2.95345 5.51943 -0.00841585 -0.00215946 0.0134228
67 6 -8.09105 4.70534 2.07976 -0.00515877 0.00246233 0.00224781
31 1 -8.91163 4.35154 2.70701 -0.00267292 -0.00305067 0.00204454
4 2 -8.64338 4.52875 4.14379 0.000321625 -0.00622728 0.000685409
5 3 -7.31045 4.75608 4.36382 0.000642156 -0.00192801 0.00271581
32 6 -8.23307 2.39462 2.12906 -0.00313959 -0.00601127 -0.00490326
1 1 -9.1371 2.85982 2.52129 -0.000248247 -0.00324437 -0.000584654
3 1 -9.03381 3.35209 4.91841 -0.00201274 -0.0061496 0.00177644
68 6 -9.82513 4.88371 2.4383 -0.00480386 -0.00292427 0.00901042
33 6 -9.96307 2.6878 1.83145 -0.00497608 -0.000183033 0.00451864
38 6 -7.90991 6.64172 5.09358 0.0010566 0.000757479 -0.00536377
6 3 -7.12232 6.02745 4.8784 0.00158893 0.000597051 -0.0034911
34 6 -10.5617 2.17674 4.00942 0.00439294 -0.0107189 0.00136197
36 6 -9.85845 3.61299 5.58157 -0.00797676 -0.00405567 -0.00620193
66 6 -6.47681 2.89412 3.71177 -0.0018798 -0.00552777 0.00912106
30 3 -6.2907 3.84044 4.04825 -0.000844058 -0.00351687 0.00409761
11 3 -2.66423 6.03871 3.51042 -0.000547871 -0.000432175 0.00235623
9 3 -3.54509 6.18767 4.57168 -3.69064e-05 -0.000913013 0.00208298
28 3 -1.36797 6.40881 3.77525 -0.00160396 0.00180068 0.00114287
8 3 -4.79015 5.59549 4.62247 -0.00121563 0.000316152 -0.00380147
12 3 -3.03313 5.66179 2.21 0.00401184 0.00045192 0.000172302
65 6 -4.21075 3.69745 3.87228 -0.00129208 -0.000895441 -0.00277151
29 3 -4.99056 4.29598 4.15006 -0.00137252 -0.000921289 -0.00237272
27 3 -0.477961 6.37039 2.73767 -0.0013479 0.00640998 0.000523535
40 6 -4.00896 5.47545 1.98884 0.00458296 -0.00269949 -0.000486123
13 3 -2.10628 5.54041 1.17934 0.00401879 0.00432607 -0.002263
14 3 -0.804034 5.90705 1.48368 0.00259015 0.00668008 -7.12288e-05
7 3 -5.82276 6.43519 5.05604 0.000268825 0.00419947 -0.00698554
41 6 -2.37622 5.20871 0.252296 0.00472507 0.0083038 -0.00440134
64 6 -1.0481 6.70539 4.69724 -0.00175776 -0.00318458 0.00236272
10 4 -3.29901 7.0698 5.41523 -0.00165754 -0.000707037 0.00206053
39 6 -5.64926 7.37502 5.4118 -0.00142364 0.00606434 -0.0109957
115 5 12.6482 13.6551 6.51889 0.00163845 0.00114025 0.00852502
120 5 10.1466 14.0814 5.67728 -0.00449353 -0.000633231 0.00303293
87 3 10.6529 14.4593 6.58335 -0.00178496 0.000318396 0.00138447
121 5 11.1617 15.3963 6.30887 -0.000450471 -0.000894801 -0.0026114
107 5 12.0848 1.0858 9.03233 0.00029191 0.00301343 -0.000935456
108 5 12.1802 2.17101 10.379 0.000486733 0.00118998 -0.00321628
92 5 9.95403 4.25433 12.7087 -0.00468587 0.00873968 0.00429814
89 5 8.02005 4.53395 10.5823 0.0074678 -0.0077111 -0.00699699
71 3 8.85135 3.97659 10.9648 0.00492939 -0.00418182 0.000943206
72 3 9.56962 4.92993 11.959 -0.00646632 0.00651591 0.00043119
74 3 10.7353 5.92138 11.7876 8.87915e-05 -0.00128848 -0.00151044
95 5 11.6701 5.36553 11.873 0.00122319 -0.00290176 0.00157495
73 3 9.23529 3.01353 9.76158 0.00820961 0.00218598 -0.00131129
75 3 10.5915 2.53523 9.12298 0.0052687 0.00265692 -0.00422556
93 5 8.71036 3.40313 8.89135 0.00774158 0.000567717 0.00187659
98 5 11.1944 3.3753 8.68163 0.0104904 0.0012252 -0.00318803
80 3 11.5229 1.51467 9.84127 0.000594576 0.0018736 -0.00169123
86 3 11.3029 0.180651 10.6606 0.00352884 0.00117804 0.000427311
97 5 10.3224 1.93014 8.26126 0.00539204 0.000245122 -0.00273839
96 5 10.6222 6.45282 12.7183 -0.00371785 -0.00219181 -0.00234506
105 5 11.1424 6.54969 9.76715 0.000927846 -0.00338824 -0.000289018
94 5 8.64504 2.13861 9.99148 0.00377563 0.00471446 -0.0104228
88 4 11.5893 0.400979 12.0647 -0.00467043 0.00772895 0.00148702
70 2 10.8039 0.937537 12.872 -0.0147942 0.00619716 -0.007439
91 5 8.75921 5.50702 12.4467 -0.0107441 0.0108012 -0.00436551
90 5 8.36526 3.36893 11.7332 0.0031639 -0.00925652 -0.00475458
58 6 5.00147 10.7573 -9.43214 -0.00161271 -0.00581789 0.00124052
54 6 3.89906 7.68528 -8.40058 -0.0110766 -0.00459516 -0.00858315
22 1 3.18039 8.35167 -7.92925 -0.00304808 -0.00237331 -0.00184234
55 6 2.23118 8.20351 -8.44576 -0.00929945 0.00465101 0.00704709
24 1 4.32609 9.9096 -9.50284 -0.0043802 -0.00438574 0.00287582
59 6 4.95247 9.04978 -9.72416 -0.00698691 -0.00505264 0.00439401
23 1 3.65034 9.79754 -8.12855 -0.00673527 -0.00146467 0.00220569
57 6 4.37718 10.0596 -7.35848 -0.00989605 0.00186305 0.00441864
25 1 3.38615 10.1231 -10.6986 0.00317577 -0.00364448 -0.00423054
61 6 2.42466 9.63268 -10.554 0.0057517 -0.00904691 -0.0120573
62 7 3.43492 11.8057 -12.2082 -0.0139934 -0.0142851 -0.00328102
26 5 3.21369 11.9094 -10.8701 -0.00234668 -0.00438597 -0.00173318
56 6 2.81465 10.4952 -8.07271 -0.0112321 -0.00717275 -0.00224304
60 6 3.84075 9.72951 -11.6088 0.00446862 -0.00939213 -0.000107029
109 5 11.0501 11.5544 6.95333 0.00332184 -0.00178117 0.000887584
79 3 10.8544 7.02183 10.6916 0.0010401 0.000181529 -0.000992079
101 5 9.90041 11.2883 8.66565 -0.00828371 0.0037762 0.0024354
113 5 9.20134 7.40455 9.47564 -0.00379524 -0.00401883 0.00282748
110 5 12.5819 11.6519 7.55608 0.00135933 0.00497833 0.00558554
116 5 8.15271 9.11584 10.2673 -0.00150757 0.00170747 0.00296025
83 4 9.66263 7.79187 10.3022 -0.00141945 -0.00204733 7.22313e-05
112 5 8.33497 10.3845 11.9641 -0.00323817 -0.00363195 0.00719113
104 5 9.80236 11.9989 11.9934 0.000169807 -0.00390345 -0.000757292
76 3 11.1181 11.7141 10.4525 -0.000724504 -0.00175104 -0.00100781
77 3 10.9534 11.3465 8.93641 -0.00584231 0.00244446 -0.000229094
78 3 10.3915 11.1228 11.7151 0.000231329 -0.00326108 -0.00220782
82 3 9.33842 9.95331 11.8434 -0.00217752 -0.0015787 0.00118711
85 4 9.03914 8.96006 10.7746 -0.00198681 -0.00243765 0.0017266
99 5 10.8261 12.7393 10.5365 0.00150534 -0.00202773 0.000962481
100 5 12.1619 11.6394 10.7066 -0.000486944 -0.00401797 -0.000800653
102 5 11.421 10.3533 8.85246 -0.00211168 0.00493426 -0.00403112
106 5 11.678 7.68318 10.923 -0.00206314 0.00486518 0.00112594
111 5 9.50894 9.49761 12.8176 0.000307524 -0.00117572 0.000652275
81 3 11.6086 12.0859 7.69864 -0.00119063 0.000981146 0.0025106
103 5 11.153 11.0052 12.53 0.0033792 -0.00478916 -0.00491146
84 3 11.7923 13.6056 7.22858 -0.00209612 0.000251794 0.00303667
119 5 9.87361 14.7025 7.30597 -0.000846272 -0.000523458 0.00351961
118 5 10.4719 -0.54857 10.4617 0.00748384 0.000121923 -0.000689825
114 5 12.1389 14.2271 8.03773 -0.000975661 -0.00314866 0.00384707
69 1 12.7369 -0.12332 12.5488 -0.00611831 0.00940242 0.00779878
117 5 12.1954 -0.418248 10.4884 0.0028225 -0.00102265 0.00377977
122 6 12.9489 -0.0160056 13.5006 -0.00793593 0.0094889 0.0081691
45 6 1.07413 5.69953 -2.39266 0.0227761 0.00179876 0.00480264
17 1 1.12635 6.73689 -2.06092 0.00510123 0.00410817 0.00130637
44 6 2.11064 6.91997 -1.62766 0.000126584 0.022508 0.00318307
49 6 1.70477 6.264 -4.67927 -0.0128716 0.00412798 -0.00876739
53 6 3.26036 6.7971 -6.49113 -0.00328892 0.00172253 0.00526848
43 6 -0.0255884 7.93216 -0.675993 -0.00677638 -0.00398451 -0.00288167
19 1 1.86054 7.32049 -4.4557 -0.00349638 0.00197997 -0.00283242
16 1 0.0644137 6.88503 -0.957836 0.0019057 -0.00390028 -0.00356749
48 6 2.86194 7.44646 -4.04912 -0.00116389 0.000815914 -0.00680427
18 1 0.94785 7.6906 -3.26997 -0.00072645 -0.00154443 -0.00243799
20 1 1.75 8.13313 -5.77964 -0.00163029 0.00722147 0.00222095
47 6 1.16932 8.71079 -2.94922 -0.00918131 0.000450677 -0.00315702
51 6 1.63922 9.19486 -5.55867 0.00339825 0.00665582 0.00804065
21 1 3.10717 7.87719 -6.46921 -0.000913282 0.00091135 0.00133596
52 6 3.91249 8.33284 -5.88676 -0.000645027 0.00508031 -0.00135398
50 6 0.923682 7.79063 -6.40113 -0.00429315 0.0144137 0.00200628
42 6 -0.888196 6.50297 -1.31938 0.00471561 -0.0107428 -0.00457639
46 6 -0.0808007 7.62443 -3.61522 -0.000633056 -0.0105038 -0.000315034
ITEM: TIMESTEP
10200
ITEM: NUMBER OF ATOMS
122
ITEM: BOX BOUNDS pp pp pp
0.0000000000000000e+00 2.0000000000000000e+01
0.0000000000000000e+00 2.0000000000000000e+01
0.0000000000000000e+00 2.0000000000000000e+01
ITEM: ATOMS id type xu yu zu vx vy vz
63 6 0.723963 6.98654 3.04826 0.00545605 0.00523826 -0.00114808
15 5 0.79602 6.09254 0.380984 0.00496262 0.00371007 -0.00100095
35 6 -8.59006 1.12945 3.99379 0.0041449 -0.00757854 -0.000838568
2 1 -9.36687 1.8814 3.85292 0.00403228 -0.00719301 -0.000597839
37 6 -8.53764 2.73365 5.65656 -0.000699356 -0.00827917 -0.00130202
67 6 -8.44646 4.62597 2.22273 -0.0104945 -0.00272417 -0.000661802
31 1 -9.17433 4.1097 2.84963 -0.00739429 -0.00496883 0.00107368
4 2 -8.85795 4.26676 4.28034 -0.0032825 -0.00664459 -8.77907e-05
5 3 -7.48842 4.65533 4.42218 -0.00466657 -0.00107859 4.25661e-05
32 6 -8.27374 2.30398 2.05194 0.000145621 0.00365497 -0.0018542
1 1 -9.20788 2.60664 2.52372 -0.000887514 -0.00423491 0.000524625
3 1 -9.27132 2.99926 4.90166 -0.00139334 -0.00737665 -0.000319171
68 6 -10.1669 4.52094 2.66911 -0.00901794 -0.00770172 0.00507204
33 6 -10.0513 2.36307 1.87737 0.000183044 -0.00808062 0.000653225
38 6 -8.02799 6.57294 5.03976 -0.00318564 -0.00205476 0.000217409
6 3 -7.24072 5.97089 4.7983 -0.00436032 -0.00242543 -0.000779897
34 6 -10.3516 1.41308 3.89424 0.00346308 -0.00611306 0.00309149
36 6 -10.2539 3.14697 5.35075 -0.00276127 -0.00690336 -0.00319755
66 6 -6.4652 2.9125 3.85569 -0.00362324 0.00200704 0.00414829
30 3 -6.35018 3.88622 4.12612 -0.0037297 0.00246909 0.000964544
11 3 -2.51073 6.18171 3.52597 0.00515537 0.00419703 0.00338667
9 3 -3.53897 6.26108 4.50151 -0.000280901 -0.000323292 0.000168627
28 3 -1.21146 6.64824 3.8009 0.00568571 0.00845562 0.00136138
8 3 -4.83668 5.72296 4.47074 -0.0026026 0.00190195 -0.0017598
12 3 -2.74345 5.72818 2.21854 0.00937238 0.00893711 -0.000282909
65 6 -4.25119 3.78407 3.95662 -0.00665979 0.00144978 -0.0046378
29 3 -5.045 4.39021 4.16243 -0.00431422 0.00345381 -0.00278572
27 3 -0.213088 6.64754 2.82302 0.0056078 0.00412105 2.10665e-05
40 6 -3.6616 5.37591 1.95889 0.00987415 0.00784029 0.00115599
13 3 -1.76808 5.76649 1.22176 0.00970305 -0.00070634 -0.00210198
14 3 -0.487043 6.19718 1.53378 0.00746016 0.000763855 0.00048788
7 3 -5.94809 6.49817 4.82088 -0.00506656 -0.00133166 -0.00120932
41 6 -1.99334 5.43906 0.283332 0.0139638 -0.00737061 -0.000736847
64 6 -0.972154 7.02034 4.71951 0.00480884 0.0151942 -0.000672813
10 4 -3.27143 6.93172 5.52041 0.00127923 -0.00213508 -0.000271038
39 6 -5.81806 7.4787 5.07174 -0.00689983 -0.00135394 -5.18326e-05
115 5 12.5431 13.5885 6.78096 -0.00303605 -0.00169724 -0.00178266
120 5 10.0212 14.1196 5.83684 -0.000750378 -0.00374385 0.00529611
87 3 10.566 14.4547 6.72239 -0.00130836 -0.000412621 0.0037273
121 5 11.0394 15.3379 6.31521 -0.0017472 0.000314939 0.00407041
107 5 12.3309 1.18586 8.8805 0.0087357 0.000197944 -0.000362331
108 5 12.5135 2.24582 10.3419 0.0100712 -0.000670764 -0.000368688
92 5 9.57255 4.68273 12.9085 -0.0100636 0.00455961 0.00159493
89 5 8.16565 4.19213 10.3408 -0.00161556 -0.00583961 0.000474062
71 3 8.98271 3.76331 10.9089 0.00150374 -0.00303752 -0.00226719
72 3 9.41934 4.9865 11.8738 0.000418747 -0.00321355 -0.00130825
74 3 10.6549 5.90559 11.7453 -0.00214665 0.00124638 0.000422099
95 5 11.549 5.31434 11.8019 -0.00484335 -0.00078481 -0.00489134
73 3 9.44938 3.08178 9.60445 0.0015012 0.00257171 -0.0049248
75 3 10.7763 2.47169 9.11021 0.00223233 -0.000279533 0.000446346
93 5 9.12794 3.78262 8.81881 0.00969721 0.0120879 -0.00467773
98 5 11.4525 3.21737 8.80017 0.00232928 -0.00127904 0.00551578
80 3 11.8215 1.56444 9.79778 0.0076157 0.00195663 -0.00101728
86 3 11.5274 0.320182 10.7155 0.0046349 0.00386309 6.93327e-05
97 5 10.4701 2.07633 8.14459 0.00225153 0.00173241 -0.000121834
96 5 10.686 6.40558 12.7093 0.00448088 0.000288651 0.00142168
105 5 11.2367 6.5317 9.78473 0.00123068 0.00279295 0.000288818
94 5 8.78517 2.20393 9.57203 0.00121625 9.92967e-05 -0.00740799
88 4 11.3147 0.635403 12.1592 -0.000296081 0.00623925 0.00030777
70 2 10.2349 1.06285 12.6037 -0.00561827 -0.00604325 -0.00244779
91 5 8.5666 5.6248 12.0978 0.00012078 -0.00666038 -0.00949076
90 5 8.52402 2.94444 11.4463 0.000967828 -0.00289678 -0.00439172
58 6 4.93561 10.7149 -9.29708 0.00466475 -0.00761871 0.0104457
54 6 3.3645 7.51245 -8.55375 -0.0125916 0.000422728 -0.0052105
22 1 2.84301 8.24845 -7.93765 -0.00517046 0.00224613 -0.000526714
55 6 1.78013 8.21233 -8.15977 -0.005862 0.00173718 0.00436351
24 1 4.32941 9.81454 -9.42472 -0.00247136 -0.00166892 0.0030393
59 6 4.97727 8.93844 -9.49277 -0.00535501 -0.00528415 0.00248931
23 1 3.34188 9.68995 -8.23326 -0.00412309 0.000789244 -0.000847029
57 6 3.8447 10.105 -7.36165 -0.0129267 0.00596982 0.00173408
25 1 3.55627 9.96618 -10.7411 0.0023616 -0.00277364 -0.00123222
61 6 2.66666 9.34438 -10.6556 0.0045709 -0.00713071 -0.0035668
62 7 2.05605 11.2692 -11.8114 -0.0223907 -0.0054538 0.0212748
26 5 3.07243 11.6782 -11.0004 -0.00330549 -0.00579424 -0.00306543
56 6 2.4686 10.3092 -8.44426 -0.00382566 -0.00339979 -0.0125345
60 6 4.15918 9.62424 -11.5835 0.0125103 0.00628861 0.000550668
109 5 11.3349 11.3177 6.87204 0.00781782 0.000422016 -0.00262025
79 3 10.8002 7.00122 10.6518 -0.00290762 -0.000405389 -0.00117358
101 5 9.72134 11.5329 8.67104 0.000537674 0.00620562 -0.00127071
113 5 9.05151 7.38952 9.45923 -0.000697057 0.00414083 -0.00337171
110 5 12.7087 11.8453 7.73952 0.000205662 0.0020198 0.00286588
116 5 8.01531 9.05909 10.4553 -0.00369486 -0.00366215 0.00256217
83 4 9.57001 7.75769 10.265 -0.00194392 0.00109006 -0.00268979
112 5 8.36201 10.3404 12.1651 0.00228477 0.00134316 -0.000787924
104 5 9.81196 11.8524 12.1655 0.000167509 -0.000298254 0.00681012
76 3 11.0579 11.684 10.4583 -0.00338232 -0.000523016 0.00148299
77 3 10.7881 11.4713 8.90049 -0.000865078 -0.00126397 -0.00027348
78 3 10.2846 11.0315 11.6338 -0.00295202 -0.000825991 0.0016367
82 3 9.29632 9.86265 11.8782 -2.86211e-05 -0.00263734 0.000717341
85 4 8.9405 8.88289 10.8337 -0.00295087 -0.00135338 -0.000259327
99 5 10.8408 12.7085 10.7714 5.71473e-05 -0.000318252 0.0065608
100 5 12.0875 11.4455 10.7871 -0.00451894 -0.00327424 0.00164608
102 5 11.0551 10.4677 8.68156 -0.0111802 -0.00419295 -0.00105098
106 5 11.6068 7.64959 10.9508 -0.00072598 -0.00593214 -0.000496822
111 5 9.52932 9.42612 12.8439 0.00144527 -0.00197038 0.000624004
81 3 11.6203 12.032 7.69292 0.00112112 -0.000562797 0.000188179
103 5 11.132 10.7282 12.2176 -0.00118647 -0.00602479 -0.00274692
84 3 11.6774 13.5778 7.40478 -0.000790089 -0.000564997 0.00140206
119 5 9.86857 14.7879 7.48331 -0.000466051 0.00380158 0.00318166
118 5 10.6989 -0.328 10.4202 0.000637509 0.00601522 -0.00218655
114 5 12.0721 14.1749 8.24371 -0.00342364 -2.30009e-05 0.00275197
69 1 12.1879 0.447827 13.1742 -0.0144171 0.0112993 0.0115752
117 5 12.4099 -0.31919 10.5882 0.00619603 0.00500963 0.00396675
122 6 11.8948 0.657525 14.0889 -0.0311663 0.00652378 0.00722118
45 6 1.79443 6.1155 -2.23795 0.00409941 0.00932695 0.0109049
17 1 1.27177 7.05951 -2.06799 -0.00325481 0.00672178 0.000887279
44 6 1.95527 7.77331 -1.60291 -0.0104832 0.0137744 0.00170552
49 6 1.48741 6.33826 -4.85064 -0.00235727 0.00180588 0.00261133
53 6 2.98303 6.75208 -6.46017 -0.00746901 -0.00574389 -0.00231993
43 6 -0.448392 7.69977 -0.932432 -0.006104 -0.00294409 -0.00339146
19 1 1.76819 7.29353 -4.40779 0.000172973 0.00139054 0.00178831
16 1 0.081532 6.76693 -1.13539 -0.00345836 -0.00116413 -0.000603909
48 6 2.75425 7.20125 -3.94646 -0.000303184 -0.00903817 -0.000258639
18 1 0.714635 7.66249 -3.36675 -0.00379025 -0.0013149 -0.000276103
20 1 1.87283 8.35606 -5.49201 0.00452434 0.00205138 0.00294773
47 6 0.618513 8.74051 -3.24616 -0.00578497 -0.000950722 -0.00446307
51 6 2.16239 9.31052 -5.04951 0.0132254 0.000641751 0.00187455
21 1 2.96782 7.84073 -6.46331 -0.00261986 -0.00463538 -0.00252944
52 6 3.93007 8.16997 -6.08326 0.000661276 -0.0115954 -0.00623894
50 6 0.898034 8.44951 -5.97642 0.00561005 0.0098746 0.00166291
42 6 -0.604577 6.0415 -1.57606 0.0013097 -0.00455302 -0.0027964
46 6 -0.257931 7.24131 -3.63152 -0.00122535 -0.00533591 -0.00308865
ITEM: TIMESTEP
10300
ITEM: NUMBER OF ATOMS
122
ITEM: BOX BOUNDS pp pp pp
0.0000000000000000e+00 2.0000000000000000e+01
0.0000000000000000e+00 2.0000000000000000e+01
0.0000000000000000e+00 2.0000000000000000e+01
ITEM: ATOMS id type xu yu zu vx vy vz
63 6 0.750465 7.24856 3.1829 -0.00880371 0.00401013 0.00366334
15 5 1.03158 6.27498 0.452839 -0.00101453 0.00357599 0.00600931
35 6 -8.36024 0.95847 3.86969 0.0069663 0.00127726 -0.00568186
2 1 -9.17571 1.68083 3.81611 0.0039683 -0.00229344 -0.00056514
37 6 -8.13837 2.56421 5.51474 0.0110265 -0.00151069 -0.00521384
67 6 -9.00763 4.55075 2.19352 -0.00920572 0.000812191 -5.51194e-05
31 1 -9.45956 3.87405 2.91784 -0.000966492 -0.00195049 0.00277513
4 2 -8.89141 4.10232 4.26673 0.00473072 -0.002402 -0.000426458
5 3 -7.53699 4.6087 4.28794 0.00355618 -0.00051481 -0.00661364
32 6 -8.25707 2.33342 1.96332 0.00131865 0.00131572 0.00206804
1 1 -9.20593 2.42507 2.49115 0.000473551 -0.00176562 0.00137854
3 1 -8.99813 2.77031 4.88039 0.00909712 -0.00112107 -0.00264569
68 6 -10.538 4.04353 2.93968 -0.00172327 -0.0058809 0.0108548
33 6 -10.0201 2.05932 1.86557 0.00171296 -0.00496758 0.00162807
38 6 -8.04948 6.42507 5.18833 -0.000638952 -0.00755875 0.0115732
6 3 -7.27135 5.87383 4.82489 -0.000579845 -0.00324361 0.00361203
34 6 -10.132 1.18287 3.97186 0.00562594 -0.00430437 0.00215908
36 6 -9.90098 2.75431 5.4883 0.0134211 0.00392107 0.00351237
66 6 -6.49015 2.99344 3.44586 0.00428007 0.0055071 -0.023363
30 3 -6.3997 3.93511 3.82127 0.00307732 0.00252198 -0.0145714
11 3 -2.5059 6.32521 3.5028 -0.000275108 -0.00277814 -0.00155652
9 3 -3.58705 6.37283 4.42318 0.00180632 -0.00136957 -0.00158179
28 3 -1.2351 6.86068 3.7802 -0.00638518 0.00328965 0.00121819
8 3 -4.86264 5.75898 4.3546 0.00198691 0.000530692 -0.00191055
12 3 -2.59994 5.76303 2.24032 0.00334506 -0.00351477 -0.00163296
65 6 -4.33979 3.9255 3.47857 0.0020492 0.00199447 -0.0094247
29 3 -5.11267 4.4887 3.83199 0.00334408 0.0026629 -0.00744826
27 3 -0.144277 6.85235 2.8933 -0.00730742 0.00133304 0.00357866
40 6 -3.48811 5.40334 1.90264 0.00480567 -0.00547901 -0.00336455
13 3 -1.51858 5.71784 1.36533 0.00272398 -0.00281914 -0.000576222
14 3 -0.277816 6.29295 1.62585 -0.00189451 0.00277021 0.00289567
7 3 -5.97694 6.40839 4.88459 -7.35784e-05 -0.00259552 0.00127846
41 6 -1.68805 5.27344 0.46865 0.00567906 -0.00304616 -0.0010907
64 6 -1.06968 7.28584 4.69093 -0.0100113 0.00982139 -0.00167186
10 4 -3.37195 7.00699 5.48049 -0.00700856 0.00523598 -0.00416929
39 6 -5.8597 7.33572 5.29101 -0.0011438 -0.00423479 0.0051842
115 5 12.3778 13.6449 6.58369 -0.0047954 0.00276312 -0.00134945
120 5 9.90563 13.9709 6.12026 -0.0049507 0.00365921 0.00409087
87 3 10.495 14.4578 6.90436 -0.00216864 -0.000449011 0.00354853
121 5 11.0215 15.3428 6.52402 -0.00143448 -0.00219807 0.00191685
107 5 12.6416 1.15602 9.12836 0.000982787 -0.00204741 0.00607442
108 5 12.8523 2.201 10.2954 0.00466282 0.00419398 0.00243271
92 5 9.21578 4.46453 12.8117 -0.00360238 -0.00826678 -0.00683831
89 5 7.98648 4.13701 10.514 -0.00365076 0.0027132 0.00187369
71 3 8.94695 3.73543 10.8342 -0.00259729 7.96184e-05 -0.00149962
72 3 9.28535 4.89763 11.7833 -0.00465177 0.000223122 -0.00355159
74 3 10.5883 5.81857 11.6519 -0.00115177 -0.00345184 -0.00549681
95 5 11.4777 5.20619 11.5057 -0.000166954 -0.00170266 -0.00340988
73 3 9.62767 3.23035 9.49955 0.00245788 0.00109526 -0.000944194
75 3 11.0222 2.60936 9.13234 0.00620422 0.00428325 0.0015808
93 5 9.59841 3.97631 8.73863 0.0076055 -9.43471e-05 -0.000194779
98 5 11.6341 3.48498 8.86037 0.0042276 0.00417122 -0.00533049
80 3 12.0354 1.66189 9.88448 0.00362933 0.00287847 0.00429776
86 3 11.6619 0.514856 10.8485 0.00116443 0.00168443 0.0020899
97 5 10.7657 2.08158 8.19359 0.010624 0.0033167 0.00197924
96 5 10.8108 6.2642 12.6349 -0.000965755 -0.0073637 -0.00583075
105 5 11.1408 6.6064 9.65684 -0.00400036 0.00195893 -0.00272352
94 5 8.85709 2.62755 9.04722 0.00258265 0.0107042 -0.011575
88 4 11.1471 0.706954 12.1973 -0.00286862 -0.000245 -0.0021958
70 2 9.92355 0.490363 12.3997 0.000520713 -0.0158394 -0.000771869
91 5 8.32056 5.39902 11.6072 -0.00605217 0.000670791 -0.006433
90 5 8.52282 2.93273 11.4162 0.0019911 -0.00189292 0.00251315
58 6 4.79844 10.6947 -9.1318 -0.0098165 0.0100576 0.00165018
54 6 2.83479 7.69768 -8.87538 -0.00561137 0.00590831 -0.0043244
22 1 2.49302 8.34334 -8.06808 -0.00837128 0.000124618 -0.00141335
55 6 1.41038 8.44567 -8.16852 -0.00918085 -0.0030297 0.00309951
24 1 4.19005 9.80347 -9.29339 0.00213355 0.00170347 0.000741254
59 6 4.83619 8.93937 -9.17625 0.00457454 0.00621056 0.00426234
23 1 3.12324 9.73789 -8.1864 -0.00403431 0.00129255 -0.00245234
57 6 3.57028 10.0252 -7.23357 -0.00964981 -0.0033764 0.00170941
25 1 3.66669 9.79143 -10.7338 0.00174775 -0.00408213 0.00480899
61 6 2.96976 8.97578 -10.9263 0.012012 -0.012529 0.00448989
62 7 1.65642 10.8269 -11.0877 -0.00553199 -0.00106384 0.0156268
26 5 2.90822 11.358 -11.1126 -0.00350317 -0.00686738 -0.00221109
56 6 2.32947 10.4501 -8.39899 -0.00131713 0.00638927 0.00172171
60 6 4.52045 9.69031 -11.4045 -0.00134984 0.00150745 0.00228376
109 5 11.6254 11.4912 6.90555 0.00182729 -0.000590515 0.00349832
79 3 10.7423 6.97888 10.5992 0.000181123 0.000532348 -0.0011597
101 5 9.66537 11.7636 8.73965 -0.00353655 0.000257563 0.00486255
113 5 9.13585 7.58432 9.2605 0.00330803 -1.80348e-05 -0.00124878
110 5 12.7284 11.844 7.98669 0.00182715 -0.000812038 0.00684815
116 5 7.8927 8.93627 10.507 9.82962e-05 -0.000524919 3.95844e-05
83 4 9.55599 7.80643 10.1845 0.000863214 -0.00010312 -0.000371006
112 5 8.28341 10.3818 12.0442 -0.00512382 -0.000547739 -0.00176872
104 5 9.92472 11.7364 12.4495 0.00399754 -0.005331 0.00287837