ITEM: TIMESTEP
0
ITEM: NUMBER OF ATOMS
122
ITEM: BOX BOUNDS pp pp pp
0.0000000000000000e+00 2.0000000000000000e+01
0.0000000000000000e+00 2.0000000000000000e+01
0.0000000000000000e+00 2.0000000000000000e+01
ITEM: ATOMS id type xu yu zu vx vy vz
16 1 1.0037 0.582266 1.11377 0 0 0
17 1 2.30491 1.23069 1.58959 0 0 0
18 1 2.73459 0.504722 2.93805 0 0 0
19 1 4.0358 1.15314 3.41387 0 0 0
20 1 4.46549 0.427177 4.76233 0 0 0
21 1 5.7667 1.0756 5.23815 0 0 0
22 1 6.19638 0.349633 6.58661 0 0 0
42 6 0.244082 0.687357 1.84993 0 0 0
44 6 3.06453 1.1256 0.853423 0 0 0
45 6 2.13431 2.28176 1.77969 0 0 0
46 6 1.97497 0.609813 3.67421 0 0 0
48 6 4.79542 1.04805 2.6777 0 0 0
49 6 3.8652 2.20422 3.60397 0 0 0
50 6 3.70587 0.532268 5.49849 0 0 0
52 6 6.52631 0.970507 4.50198 0 0 0
53 6 5.59609 2.12667 5.42825 0 0 0
56 6 8.25721 0.892962 6.32626 0 0 0
113 5 5.99855 10.3348 5.97345 0 0 0
116 5 7.03085 12.3855 6.55572 0 0 0
43 6 1.1743 -0.468807 0.923664 0 0 0
47 6 2.9052 -0.546351 2.74794 0 0 0
51 6 4.63609 -0.623896 4.57222 0 0 0
55 6 6.29704 -0.709461 6.32548 0 0 0
63 6 -0.853377 -0.715524 0.83627 0 0 0
64 6 -2.98142 -1.90637 0.250323 0 0 0
54 6 5.36682 0.446703 7.25175 0 0 0
91 5 6.36755 6.61826 8.705 0 0 0
23 1 7.49759 0.998053 7.06243 0 0 0
24 1 7.85733 0.264068 8.33986 0 0 0
25 1 9.22848 0.920509 8.88671 0 0 0
26 5 9.61862 0.0868158 10.4271 0 0 0
32 6 -8.41571 0.433369 -8.88336 0 0 0
57 6 7.32698 2.04913 7.25253 0 0 0
58 6 7.09771 0.369159 9.07603 0 0 0
60 6 9.9881 0.815418 8.15054 0 0 0
61 6 9.05788 1.97158 9.07681 0 0 0
62 7 10.7799 0.719195 10.7609 0 0 0
90 5 7.94977 6.38565 10.4116 0 0 0
35 6 -6.26261 0.882794 -9.64636 0 0 0
37 6 -5.34134 0.472481 -7.55044 0 0 0
72 3 6.4831 7.51253 9.33502 0 0 0
74 3 6.19734 8.77355 8.62921 0 0 0
92 5 5.77584 7.34759 10.1909 0 0 0
95 5 6.25815 9.60995 9.31968 0 0 0
96 5 5.14112 8.70532 8.26902 0 0 0
71 3 7.9022 7.31151 9.93148 0 0 0
73 3 8.27554 8.4082 10.9888 0 0 0
75 3 9.64868 8.28834 11.6213 0 0 0
76 3 10.9313 11.7944 8.69514 0 0 0
77 3 12.288 11.6017 8.08494 0 0 0
78 3 9.81227 11.666 7.55878 0 0 0
79 3 7.0996 9.08083 7.42442 0 0 0
80 3 9.91254 9.26927 12.7995 0 0 0
82 3 8.37688 11.7117 8.12232 0 0 0
83 4 6.81384 10.3418 6.71861 0 0 0
85 4 7.37375 11.5102 7.0209 0 0 0
89 5 8.62465 7.42661 9.20705 0 0 0
93 5 7.45239 8.31639 11.8098 0 0 0
94 5 8.18201 9.41522 10.5448 0 0 0
97 5 9.78816 7.20016 12.0293 0 0 0
98 5 10.3711 8.40343 10.8969 0 0 0
99 5 10.7911 12.7457 9.14818 0 0 0
100 5 10.7315 10.9962 9.4044 0 0 0
101 5 12.4178 12.3918 7.30466 0 0 0
102 5 12.4282 10.6503 7.63191 0 0 0
103 5 9.9573 12.4063 6.90997 0 0 0
104 5 9.99844 10.6335 7.06966 0 0 0
105 5 7.03879 8.24443 6.73395 0 0 0
106 5 8.20177 9.06791 7.74852 0 0 0
107 5 9.81901 10.2763 12.3555 0 0 0
109 5 13.3303 12.8783 9.58954 0 0 0
111 5 8.27104 11.0107 9.00971 0 0 0
112 5 8.23667 12.6631 8.57536 0 0 0
114 5 12.454 10.8481 10.8226 0 0 0
117 5 12.0389 9.2332 12.5401 0 0 0
81 3 13.3458 11.861 9.12592 0 0 0
84 3 13.4782 10.8249 10.239 0 0 0
87 3 14.5361 11.0842 11.28 0 0 0
110 5 14.44 11.8459 8.6134 0 0 0
115 5 13.5636 9.81566 9.84642 0 0 0
119 5 14.3958 12.0356 11.733 0 0 0
120 5 15.5055 11.0032 10.7569 0 0 0
121 5 14.5309 10.36 12.0708 0 0 0
1 1 -7.78593 -0.461852 -8.83924 0 0 0
31 1 -7.66473 -0.92909 -7.35701 0 0 0
33 6 -8.23396 -1.18657 -9.4426 0 0 0
59 6 8.02794 -0.787005 8.14976 0 0 0
67 6 -7.8445 -0.0854532 -6.71206 0 0 0
68 6 -8.40003 -1.70223 -7.10882 0 0 0
2 1 -6.36371 -0.198145 -9.28394 0 0 0
3 1 -5.51163 -0.479665 -8.12001 0 0 0
4 2 -6.28685 -1.42894 -7.24942 0 0 0
34 6 -6.1356 -0.795023 -10.1452 0 0 0
36 6 -4.59933 -0.946483 -8.40248 0 0 0
15 5 0.497676 1.48909 -0.461542 0 0 0
12 3 -2.82573 0.350785 -2.4107 0 0 0
13 3 -1.6644 0.983164 -2.07692 0 0 0
14 3 -0.991754 0.577874 -0.863134 0 0 0
40 6 -3.28216 0.591253 -3.25559 0 0 0
41 6 -1.2788 1.7162 -2.68022 0 0 0
69 1 12.9294 9.89 14.9682 0 0 0
70 2 10.8954 10.868 14.8895 0 0 0
86 3 11.3316 9.06825 13.396 0 0 0
88 4 11.5803 10.099 14.4427 0 0 0
108 5 9.19008 9.15418 13.524 0 0 0
118 5 11.41 8.11108 13.7086 0 0 0
122 6 13.0974 10.5142 15.7179 0 0 0
6 3 -6.7766 -1.63602 -4.91335 0 0 0
38 6 -7.77168 -1.83526 -5.17815 0 0 0
39 6 -7.01022 -1.83178 -2.83078 0 0 0
5 3 -5.85915 -1.3786 -5.98667 0 0 0
7 3 -6.34891 -1.58567 -3.65059 0 0 0
8 3 -4.99737 -1.4668 -3.30534 0 0 0
9 3 -4.55448 -1.46631 -1.91112 0 0 0
10 4 -5.18743 -2.07163 -1.07867 0 0 0
11 3 -3.26847 -0.76804 -1.56677 0 0 0
27 3 -1.4257 -0.401921 -0.0435627 0 0 0
28 3 -2.58703 -1.0343 -0.377336 0 0 0
29 3 -4.07992 -1.20938 -4.37866 0 0 0
30 3 -4.50761 -1.25973 -5.64142 0 0 0
65 6 -3.08484 -1.01014 -4.11386 0 0 0
66 6 -3.8463 -1.01362 -6.46123 0 0 0
ITEM: TIMESTEP
25
ITEM: NUMBER OF ATOMS
122
ITEM: BOX BOUNDS pp pp pp
0.0000000000000000e+00 2.0000000000000000e+01
0.0000000000000000e+00 2.0000000000000000e+01
0.0000000000000000e+00 2.0000000000000000e+01
ITEM: ATOMS id type xu yu zu vx vy vz
16 1 1.02948 0.616474 1.09098 0 0 0
17 1 2.31893 1.23107 1.61505 0 0 0
18 1 2.73809 0.520792 2.91083 0 0 0
19 1 4.03242 1.14238 3.43492 0 0 0
20 1 4.46123 0.442056 4.72863 0 0 0
21 1 5.75495 1.07186 5.24129 0 0 0
22 1 6.16949 0.362663 6.5278 0 0 0
42 6 0.264203 0.738279 1.85866 0 0 0
44 6 3.09094 1.11579 0.855397 0 0 0
45 6 2.14434 2.28945 1.80432 0 0 0
46 6 1.95806 0.630243 3.66491 0 0 0
48 6 4.81285 1.03098 2.6825 0 0 0
49 6 3.8667 2.20189 3.62901 0 0 0
50 6 3.68503 0.55272 5.48603 0 0 0
52 6 6.54074 0.958339 4.49459 0 0 0
53 6 5.59323 2.13053 5.44418 0 0 0
56 6 8.25771 0.879041 6.30504 0 0 0
113 5 6.07499 10.428 5.80194 0 0 0
116 5 6.70483 12.3767 6.51189 0 0 0
43 6 1.21606 -0.439932 0.894143 0 0 0
47 6 2.90346 -0.5398 2.71859 0 0 0
51 6 4.63095 -0.618106 4.53957 0 0 0
55 6 6.33271 -0.696852 6.32892 0 0 0
63 6 -1.03944 -0.781091 0.782868 0 0 0
64 6 -2.98477 -1.83838 0.181032 0 0 0
54 6 5.38503 0.471769 7.27712 0 0 0
91 5 6.2559 6.41536 8.75425 0 0 0
23 1 7.4616 0.992992 7.03988 0 0 0
24 1 7.86361 0.279833 8.31703 0 0 0
25 1 9.13286 0.91332 8.83859 0 0 0
26 5 9.33462 0.0762213 10.3869 0 0 0
32 6 -8.05523 0.485715 -8.69479 0 0 0
57 6 7.30744 2.05017 7.25494 0 0 0
58 6 7.0906 0.389313 9.07786 0 0 0
60 6 9.98601 0.75953 8.17395 0 0 0
61 6 9.00734 1.97407 9.0543 0 0 0
62 7 10.1775 1.11249 10.5787 0 0 0
90 5 7.43777 6.11667 10.4299 0 0 0
35 6 -6.24869 0.841019 -9.62605 0 0 0
37 6 -5.33574 0.4506 -7.57819 0 0 0
72 3 6.33749 7.35066 9.30403 0 0 0
74 3 5.98631 8.64171 8.46917 0 0 0
92 5 5.41885 7.17719 9.88952 0 0 0
95 5 5.6127 9.4742 9.08989 0 0 0
96 5 5.00237 8.38628 8.1244 0 0 0
71 3 7.72237 7.06363 9.99324 0 0 0
73 3 8.23427 8.13065 11.0835 0 0 0
75 3 9.66677 8.18694 11.7515 0 0 0
76 3 10.9353 11.8404 8.47412 0 0 0
77 3 12.4791 11.7202 8.0175 0 0 0
78 3 9.69471 11.8714 7.498 0 0 0
79 3 6.86823 9.02698 7.19726 0 0 0
80 3 10.0536 9.24195 12.9332 0 0 0
82 3 8.16922 11.9968 8.02469 0 0 0
83 4 6.66853 10.3676 6.63195 0 0 0
85 4 7.17733 11.6101 7.00896 0 0 0
89 5 8.43401 6.64272 9.2487 0 0 0
93 5 7.44587 8.23548 11.8306 0 0 0
94 5 8.29701 9.02467 10.5473 0 0 0
97 5 9.82961 7.16206 12.0775 0 0 0
98 5 10.3284 8.39583 10.9046 0 0 0
99 5 10.7877 12.6819 9.17119 0 0 0
100 5 10.7701 10.9001 8.95185 0 0 0
101 5 12.8331 12.5243 7.37094 0 0 0
102 5 12.7675 10.815 7.43702 0 0 0
103 5 9.81005 12.7092 6.83036 0 0 0
104 5 9.81462 11.0658 6.79234 0 0 0
105 5 6.68913 8.38134 6.3462 0 0 0
106 5 7.9015 8.83245 7.24588 0 0 0
107 5 10.0935 10.3056 12.5994 0 0 0
109 5 13.7739 12.9952 9.2639 0 0 0
111 5 7.81206 11.7081 9.01296 0 0 0
112 5 7.87603 13.0329 8.1446 0 0 0
114 5 13.0087 11.2066 11.062 0 0 0
117 5 12.2779 8.96216 13.1719 0 0 0
81 3 13.6066 11.9123 9.06613 0 0 0
84 3 13.7504 10.9375 10.3385 0 0 0
87 3 14.8497 11.1196 11.3829 0 0 0
110 5 14.3955 11.7567 8.3403 0 0 0
115 5 13.7638 9.83695 10.1747 0 0 0
119 5 14.65 11.9542 12.0672 0 0 0
120 5 15.8666 11.022 11.0306 0 0 0
121 5 14.7973 10.278 12.0254 0 0 0
1 1 -7.66884 -0.499142 -8.80822 0 0 0
31 1 -7.62687 -0.966517 -7.3842 0 0 0
33 6 -8.21997 -1.18437 -9.453 0 0 0
59 6 8.04533 -0.778947 8.13282 0 0 0
67 6 -7.80684 -0.0889681 -6.75541 0 0 0
68 6 -8.38567 -1.733 -7.2069 0 0 0
2 1 -6.30211 -0.212033 -9.34214 0 0 0
3 1 -5.48631 -0.495212 -8.10562 0 0 0
4 2 -6.25991 -1.44954 -7.2791 0 0 0
34 6 -6.06438 -0.869896 -10.1747 0 0 0
36 6 -4.54707 -0.926138 -8.44093 0 0 0
15 5 0.528175 1.45238 -0.429352 0 0 0
12 3 -2.81596 0.355726 -2.30042 0 0 0
13 3 -1.61042 0.973452 -1.97157 0 0 0
14 3 -0.935546 0.587866 -0.826033 0 0 0
40 6 -3.30214 0.745943 -3.10214 0 0 0
41 6 -1.26175 1.70744 -2.58701 0 0 0
69 1 12.9529 9.96056 15.078 0 0 0
70 2 11.0645 11.0804 15.1648 0 0 0
86 3 11.3881 9.05884 13.7228 0 0 0
88 4 11.7051 10.1439 14.6435 0 0 0
108 5 9.42214 9.17393 13.8278 0 0 0
118 5 11.501 8.19047 14.3685 0 0 0
122 6 13.236 10.5665 15.7702 0 0 0
6 3 -6.74203 -1.67193 -4.88035 0 0 0
38 6 -7.73346 -1.86765 -5.02672 0 0 0
39 6 -6.98647 -1.81502 -2.83138 0 0 0
5 3 -5.86315 -1.42978 -5.94698 0 0 0
7 3 -6.30726 -1.66446 -3.57554 0 0 0
8 3 -4.95399 -1.43171 -3.27815 0 0 0
9 3 -4.50166 -1.40817 -1.97153 0 0 0
10 4 -5.14008 -2.02524 -1.10364 0 0 0
11 3 -3.31576 -0.714089 -1.57602 0 0 0
27 3 -1.47323 -0.440782 -0.0605876 0 0 0
28 3 -2.65878 -1.08591 -0.423425 0 0 0
29 3 -4.08968 -1.29186 -4.36346 0 0 0
30 3 -4.51723 -1.24412 -5.65291 0 0 0
65 6 -3.08366 -1.22884 -4.23677 0 0 0
66 6 -3.79865 -1.09345 -6.35751 0 0 0
ITEM: TIMESTEP
50
ITEM: NUMBER OF ATOMS
122
ITEM: BOX BOUNDS pp pp pp
0.0000000000000000e+00 2.0000000000000000e+01
0.0000000000000000e+00 2.0000000000000000e+01
0.0000000000000000e+00 2.0000000000000000e+01
ITEM: ATOMS id type xu yu zu vx vy vz
16 1 1.0405 0.618104 1.09457 0 0 0
17 1 2.3305 1.24096 1.61249 0 0 0
18 1 2.74068 0.528014 2.90423 0 0 0
19 1 4.03402 1.14771 3.42991 0 0 0
20 1 4.45291 0.442843 4.71934 0 0 0
21 1 5.74593 1.07327 5.22984 0 0 0
22 1 6.16048 0.364552 6.51334 0 0 0
42 6 0.269801 0.747253 1.85479 0 0 0
44 6 3.10904 1.12526 0.859144 0 0 0
45 6 2.16117 2.29932 1.80882 0 0 0
46 6 1.95538 0.639915 3.65233 0 0 0
48 6 4.81924 1.03384 2.68294 0 0 0
49 6 3.87221 2.20634 3.6315 0 0 0
50 6 3.67266 0.556551 5.47198 0 0 0
52 6 6.53265 0.95975 4.48415 0 0 0
53 6 5.58538 2.13157 5.43574 0 0 0
56 6 8.24455 0.8837 6.2787 0 0 0
113 5 6.03491 10.4522 5.74367 0 0 0
116 5 6.55702 12.3957 6.50059 0 0 0
43 6 1.22206 -0.438882 0.899495 0 0 0
47 6 2.9017 -0.531701 2.70455 0 0 0
51 6 4.61948 -0.616363 4.52312 0 0 0
55 6 6.32878 -0.694242 6.31654 0 0 0
63 6 -1.06037 -0.812418 0.815429 0 0 0
64 6 -3.01798 -1.84606 0.158602 0 0 0
54 6 5.38115 0.477913 7.2673 0 0 0
91 5 6.19287 6.32843 8.66287 0 0 0
23 1 7.45026 0.998279 7.01575 0 0 0
24 1 7.84074 0.276892 8.29168 0 0 0
25 1 9.09587 0.915937 8.83749 0 0 0
26 5 9.23075 0.158457 10.4409 0 0 0
32 6 -8.10176 0.537305 -8.77103 0 0 0
57 6 7.28933 2.05502 7.22952 0 0 0
58 6 7.05691 0.382071 9.04197 0 0 0
60 6 9.96586 0.715811 8.20851 0 0 0
61 6 8.9643 1.98822 8.97967 0 0 0
62 7 9.99043 1.23997 10.7275 0 0 0
90 5 7.26207 6.11124 10.6284 0 0 0
35 6 -6.16533 0.810015 -9.66569 0 0 0
37 6 -5.31801 0.430886 -7.57946 0 0 0
72 3 6.26378 7.25477 9.24236 0 0 0
74 3 5.91612 8.52283 8.35217 0 0 0
92 5 5.34188 7.11304 9.82841 0 0 0
95 5 5.54839 9.35596 8.96392 0 0 0
96 5 4.97153 8.19374 7.929 0 0 0
71 3 7.59762 6.98471 10.0662 0 0 0
73 3 8.212 8.0814 11.0879 0 0 0
75 3 9.6601 8.10622 11.8178 0 0 0
76 3 10.9365 11.8526 8.42125 0 0 0
77 3 12.5067 11.7921 8.00986 0 0 0
78 3 9.65905 12.0141 7.44582 0 0 0
79 3 6.79357 9.00264 7.11426 0 0 0
80 3 10.0936 9.15173 13.017 0 0 0
82 3 8.12157 12.1134 7.93729 0 0 0
83 4 6.60447 10.3836 6.59571 0 0 0
85 4 7.08457 11.649 6.97639 0 0 0
89 5 8.29594 6.53338 9.34204 0 0 0
93 5 7.41399 8.22421 11.8152 0 0 0
94 5 8.29379 8.95442 10.4837 0 0 0
97 5 9.88917 7.0792 12.1152 0 0 0
98 5 10.3232 8.35137 10.9824 0 0 0
99 5 10.8218 12.6217 9.19233 0 0 0
100 5 10.7905 10.861 8.82493 0 0 0
101 5 12.8229 12.6291 7.38133 0 0 0
102 5 12.742 10.9102 7.38974 0 0 0
103 5 9.75788 12.9403 6.88094 0 0 0
104 5 9.71184 11.2472 6.68162 0 0 0
105 5 6.47223 8.43203 6.24413 0 0 0
106 5 7.844 8.7778 7.15572 0 0 0
107 5 10.1505 10.1824 12.6313 0 0 0
109 5 13.9306 12.9639 9.19418 0 0 0
111 5 7.78172 11.8168 8.93754 0 0 0
112 5 7.88758 13.18 7.94707 0 0 0
114 5 13.0718 11.2864 11.0895 0 0 0
117 5 12.3386 8.84689 13.3391 0 0 0
81 3 13.7068 11.8917 9.04036 0 0 0
84 3 13.852 11.0229 10.3905 0 0 0
87 3 15.0122 11.1455 11.4209 0 0 0
110 5 14.4892 11.5902 8.34073 0 0 0
115 5 13.8168 9.93954 10.2189 0 0 0
119 5 14.8255 11.95 12.1408 0 0 0
120 5 16.048 11.1511 11.0747 0 0 0
121 5 14.9601 10.2372 12.0031 0 0 0
1 1 -7.67743 -0.447015 -8.84011 0 0 0
31 1 -7.60145 -0.965752 -7.42068 0 0 0
33 6 -8.2293 -1.13168 -9.48338 0 0 0
59 6 8.02987 -0.779746 8.10264 0 0 0
67 6 -7.77911 -0.118295 -6.75532 0 0 0
68 6 -8.3488 -1.74574 -7.26171 0 0 0
2 1 -6.27825 -0.227909 -9.35119 0 0 0
3 1 -5.4581 -0.512321 -8.11093 0 0 0
4 2 -6.23607 -1.46682 -7.29005 0 0 0
34 6 -6.04329 -0.917363 -10.1605 0 0 0
36 6 -4.50609 -0.926581 -8.43901 0 0 0
15 5 0.54006 1.4343 -0.429745 0 0 0
12 3 -2.80925 0.396611 -2.27906 0 0 0
13 3 -1.60966 0.986763 -1.92509 0 0 0
14 3 -0.930457 0.574249 -0.788162 0 0 0
40 6 -3.30854 0.791894 -3.0736 0 0 0
41 6 -1.23438 1.73829 -2.50552 0 0 0
69 1 13.0611 10.0318 15.209 0 0 0
70 2 11.1373 11.1145 15.2115 0 0 0
86 3 11.4178 9.02336 13.8799 0 0 0
88 4 11.8028 10.1498 14.7551 0 0 0
108 5 9.41347 9.1397 13.8757 0 0 0
118 5 11.3633 8.22036 14.6174 0 0 0
122 6 13.3985 10.6833 15.8505 0 0 0
6 3 -6.72125 -1.702 -4.87567 0 0 0
38 6 -7.712 -1.89564 -5.01672 0 0 0
39 6 -6.95633 -1.82016 -2.81061 0 0 0
5 3 -5.84016 -1.46808 -5.94179 0 0 0
7 3 -6.2781 -1.67892 -3.55998 0 0 0
8 3 -4.93957 -1.44142 -3.27659 0 0 0
9 3 -4.48289 -1.38017 -1.95956 0 0 0
10 4 -5.14074 -1.99395 -1.0887 0 0 0
11 3 -3.3274 -0.693846 -1.5723 0 0 0
27 3 -1.48721 -0.461645 -0.0326038 0 0 0
28 3 -2.66508 -1.08125 -0.415541 0 0 0
29 3 -4.05578 -1.33097 -4.34387 0 0 0
30 3 -4.49313 -1.30486 -5.64376 0 0 0
65 6 -3.05105 -1.28411 -4.20506 0 0 0
66 6 -3.77348 -1.1806 -6.34952 0 0 0
ITEM: TIMESTEP
75
ITEM: NUMBER OF ATOMS
122
ITEM: BOX BOUNDS pp pp pp
0.0000000000000000e+00 2.0000000000000000e+01
0.0000000000000000e+00 2.0000000000000000e+01
0.0000000000000000e+00 2.0000000000000000e+01
ITEM: ATOMS id type xu yu zu vx vy vz
16 1 1.04718 0.61638 1.10132 0 0 0
17 1 2.33687 1.24762 1.6079 0 0 0
18 1 2.74367 0.534923 2.89799 0 0 0
19 1 4.03511 1.15479 3.42216 0 0 0
20 1 4.44544 0.44448 4.70909 0 0 0
21 1 5.73786 1.07538 5.21638 0 0 0
22 1 6.15249 0.365108 6.49768 0 0 0
42 6 0.276787 0.751646 1.86042 0 0 0
44 6 3.11576 1.13148 0.854657 0 0 0
45 6 2.16696 2.30618 1.80358 0 0 0
46 6 1.95734 0.648028 3.64467 0 0 0
48 6 4.82183 1.04032 2.67685 0 0 0
49 6 3.87416 2.21314 3.62606 0 0 0
50 6 3.66357 0.559182 5.46007 0 0 0
52 6 6.52291 0.962521 4.46896 0 0 0
53 6 5.57573 2.13332 5.42289 0 0 0
56 6 8.2362 0.884442 6.26114 0 0 0
113 5 5.98211 10.4675 5.73522 0 0 0
116 5 6.50814 12.401 6.48452 0 0 0
43 6 1.22824 -0.442023 0.91357 0 0 0
47 6 2.90465 -0.524573 2.69764 0 0 0
51 6 4.60998 -0.614668 4.51042 0 0 0
55 6 6.31841 -0.693724 6.29916 0 0 0
63 6 -1.06204 -0.829276 0.835418 0 0 0
64 6 -3.02985 -1.84736 0.163739 0 0 0
54 6 5.37173 0.479506 7.25006 0 0 0
91 5 6.20533 6.29383 8.63278 0 0 0
23 1 7.44307 0.998495 6.99987 0 0 0
24 1 7.82895 0.275504 8.2796 0 0 0
25 1 9.07003 0.919875 8.86392 0 0 0
26 5 9.14594 0.2438 10.5169 0 0 0
32 6 -8.11612 0.569029 -8.82685 0 0 0
57 6 7.27748 2.05574 7.20818 0 0 0
58 6 7.02656 0.366633 9.0115 0 0 0
60 6 9.95738 0.677581 8.27545 0 0 0
61 6 8.9457 2.00002 8.93367 0 0 0
62 7 9.85735 1.33745 10.8845 0 0 0
90 5 7.167 6.15262 10.718 0 0 0
35 6 -6.10213 0.782796 -9.70719 0 0 0
37 6 -5.30071 0.41722 -7.57689 0 0 0
72 3 6.24846 7.22261 9.2148 0 0 0
74 3 5.901 8.46994 8.29366 0 0 0
92 5 5.31909 7.08119 9.78722 0 0 0
95 5 5.50716 9.29314 8.89859 0 0 0
96 5 4.98629 8.09581 7.83434 0 0 0
71 3 7.54522 6.97738 10.107 0 0 0
73 3 8.19497 8.08661 11.0973 0 0 0
75 3 9.64494 8.07028 11.8598 0 0 0
76 3 10.928 11.8571 8.40921 0 0 0
77 3 12.5049 11.8239 8.015 0 0 0
78 3 9.64908 12.0756 7.42601 0 0 0
79 3 6.77792 8.99416 7.07234 0 0 0
80 3 10.1097 9.10217 13.0631 0 0 0
82 3 8.10419 12.143 7.89177 0 0 0
83 4 6.57413 10.3883 6.57329 0 0 0
85 4 7.05636 11.6588 6.94593 0 0 0
89 5 8.23958 6.48966 9.40739 0 0 0
93 5 7.38318 8.28083 11.7989 0 0 0
94 5 8.29948 8.93907 10.4584 0 0 0
97 5 9.87273 7.04122 12.16 0 0 0
98 5 10.324 8.31116 11.0354 0 0 0
99 5 10.8241 12.5938 9.2108 0 0 0
100 5 10.7892 10.8483 8.78207 0 0 0
101 5 12.8089 12.6863 7.41416 0 0 0
102 5 12.7291 10.9622 7.3685 0 0 0
103 5 9.73658 13.051 6.94109 0 0 0
104 5 9.6904 11.3602 6.60664 0 0 0
105 5 6.43354 8.44191 6.19664 0 0 0
106 5 7.83466 8.76855 7.11179 0 0 0
107 5 10.1892 10.1166 12.6523 0 0 0
109 5 13.9956 12.9405 9.14984 0 0 0
111 5 7.76732 11.8522 8.89378 0 0 0
112 5 7.87767 13.2127 7.87732 0 0 0
114 5 13.109 11.3205 11.1057 0 0 0
117 5 12.3579 8.75657 13.4303 0 0 0
81 3 13.7308 11.8759 9.03059 0 0 0
84 3 13.8898 11.051 10.4068 0 0 0
87 3 15.0802 11.1651 11.4182 0 0 0
110 5 14.4887 11.5036 8.33536 0 0 0
115 5 13.8355 9.97132 10.2386 0 0 0
119 5 14.9033 11.9574 12.1537 0 0 0
120 5 16.1156 11.2064 11.0613 0 0 0
121 5 15.0428 10.2422 11.9883 0 0 0
1 1 -7.67485 -0.41615 -8.86834 0 0 0
31 1 -7.58856 -0.958519 -7.4491 0 0 0
33 6 -8.22716 -1.09773 -9.51483 0 0 0
59 6 8.02519 -0.778442 8.08201 0 0 0
67 6 -7.76756 -0.126821 -6.76562 0 0 0
68 6 -8.33359 -1.74253 -7.30318 0 0 0
2 1 -6.25733 -0.239702 -9.36235 0 0 0
3 1 -5.43955 -0.521959 -8.11519 0 0 0
4 2 -6.22378 -1.47504 -7.30266 0 0 0
34 6 -6.03392 -0.958728 -10.1492 0 0 0
36 6 -4.4839 -0.935467 -8.43474 0 0 0
15 5 0.546402 1.42279 -0.424701 0 0 0
12 3 -2.81068 0.410571 -2.25882 0 0 0
13 3 -1.61292 1.00211 -1.88801 0 0 0
14 3 -0.933773 0.570823 -0.759931 0 0 0
40 6 -3.3046 0.808248 -3.05649 0 0 0
41 6 -1.23531 1.76498 -2.44991 0 0 0
69 1 13.1146 10.0667 15.2483 0 0 0
70 2 11.1767 11.1098 15.2221 0 0 0
86 3 11.429 8.98144 13.9552 0 0 0
88 4 11.8467 10.1358 14.7956 0 0 0
108 5 9.40722 9.11419 13.9029 0 0 0
118 5 11.3143 8.21222 14.7236 0 0 0
122 6 13.4552 10.7565 15.8549 0 0 0
6 3 -6.69933 -1.72262 -4.88447 0 0 0
38 6 -7.68951 -1.91442 -5.03089 0 0 0
39 6 -6.94137 -1.82617 -2.81771 0 0 0
5 3 -5.81806 -1.49715 -5.95063 0 0 0
7 3 -6.26115 -1.6909 -3.56523 0 0 0
8 3 -4.92379 -1.44705 -3.27536 0 0 0
9 3 -4.48524 -1.36727 -1.9496 0 0 0
10 4 -5.15136 -1.95789 -1.07857 0 0 0
11 3 -3.32613 -0.678956 -1.55868 0 0 0
27 3 -1.48955 -0.468177 -0.00944635 0 0 0
28 3 -2.67247 -1.07877 -0.401018 0 0 0
29 3 -4.03437 -1.35858 -4.33622 0 0 0
30 3 -4.46758 -1.3594 -5.64386 0 0 0
65 6 -3.02954 -1.31135 -4.18611 0 0 0
66 6 -3.74552 -1.26837 -6.35183 0 0 0
ITEM: TIMESTEP
100
ITEM: NUMBER OF ATOMS
122
ITEM: BOX BOUNDS pp pp pp
0.0000000000000000e+00 2.0000000000000000e+01
0.0000000000000000e+00 2.0000000000000000e+01
0.0000000000000000e+00 2.0000000000000000e+01
ITEM: ATOMS id type xu yu zu vx vy vz
16 1 1.04866 0.615633 1.10517 0 0 0
17 1 2.33863 1.25028 1.60519 0 0 0
18 1 2.74532 0.538573 2.89473 0 0 0
19 1 4.03597 1.15921 3.41734 0 0 0
20 1 4.44327 0.446639 4.7033 0 0 0
21 1 5.7359 1.07684 5.21002 0 0 0
22 1 6.15096 0.365425 6.4907 0 0 0
42 6 0.279659 0.75288 1.86525 0 0 0
44 6 3.11645 1.13315 0.850867 0 0 0
45 6 2.16843 2.30909 1.79961 0 0 0
46 6 1.95911 0.65217 3.64141 0 0 0
48 6 4.82275 1.04465 2.67209 0 0 0
49 6 3.87481 2.21743 3.62185 0 0 0
50 6 3.66058 0.561778 5.45345 0 0 0
52 6 6.5198 0.964516 4.46135 0 0 0
53 6 5.57293 2.13462 5.41666 0 0 0
56 6 8.23549 0.882425 6.25802 0 0 0
113 5 5.96273 10.4687 5.73394 0 0 0
116 5 6.499 12.3996 6.47258 0 0 0
43 6 1.22986 -0.443258 0.920083 0 0 0
47 6 2.9067 -0.520884 2.69469 0 0 0
51 6 4.60631 -0.612547 4.50338 0 0 0
55 6 6.31529 -0.69334 6.29046 0 0 0
63 6 -1.0626 -0.834513 0.843308 0 0 0
64 6 -3.03623 -1.8466 0.169458 0 0 0
54 6 5.36835 0.479436 7.24121 0 0 0
91 5 6.22275 6.28573 8.62502 0 0 0
23 1 7.4421 0.997092 6.99651 0 0 0
24 1 7.82574 0.275028 8.27976 0 0 0
25 1 9.05728 0.923067 8.88697 0 0 0
26 5 9.10181 0.286925 10.5607 0 0 0
32 6 -8.11759 0.580622 -8.84808 0 0 0
57 6 7.27512 2.05481 7.20126 0 0 0
58 6 7.01313 0.356578 9.00121 0 0 0
60 6 9.95532 0.66117 8.32387 0 0 0
61 6 8.93955 2.00556 8.92436 0 0 0
62 7 9.80695 1.37944 10.9474 0 0 0
90 5 7.13277 6.17573 10.7467 0 0 0
35 6 -6.07638 0.769106 -9.72779 0 0 0
37 6 -5.29299 0.411292 -7.57847 0 0 0
72 3 6.25073 7.2161 9.20588 0 0 0
74 3 5.90263 8.45435 8.27406 0 0 0
92 5 5.31817 7.07226 9.77144 0 0 0
95 5 5.49589 9.27284 8.87599 0 0 0
96 5 5.00008 8.06268 7.80337 0 0 0
71 3 7.53097 6.98156 10.1222 0 0 0
73 3 8.18946 8.09724 11.1003 0 0 0
75 3 9.63517 8.05994 11.8783 0 0 0
76 3 10.9223 11.8571 8.40912 0 0 0
77 3 12.5001 11.8333 8.01798 0 0 0
78 3 9.64535 12.0959 7.42373 0 0 0
79 3 6.7818 8.99168 7.05957 0 0 0
80 3 10.1127 9.08572 13.0808 0 0 0
82 3 8.09743 12.147 7.87889 0 0 0
83 4 6.56631 10.3872 6.56444 0 0 0
85 4 7.05001 11.6586 6.93328 0 0 0
89 5 8.22427 6.47722 9.43413 0 0 0
93 5 7.37192 8.3212 11.7875 0 0 0
94 5 8.31102 8.938 10.4472 0 0 0
97 5 9.84857 7.03051 12.1888 0 0 0
98 5 10.3248 8.28856 11.0587 0 0 0
99 5 10.8204 12.5836 9.21994 0 0 0
100 5 10.7851 10.8435 8.77222 0 0 0
101 5 12.8016 12.7059 7.43046 0 0 0
102 5 12.7239 10.9802 7.36141 0 0 0
103 5 9.72809 13.0896 6.97455 0 0 0
104 5 9.68931 11.4068 6.58038 0 0 0
105 5 6.44418 8.43915 6.18082 0 0 0
106 5 7.84148 8.77496 7.10576 0 0 0
107 5 10.2026 10.0953 12.6632 0 0 0
109 5 14.011 12.9313 9.13149 0 0 0
111 5 7.75994 11.8597 8.88142 0 0 0
112 5 7.86935 13.2162 7.85903 0 0 0
114 5 13.119 11.3318 11.1114 0 0 0
117 5 12.3607 8.71746 13.4607 0 0 0
81 3 13.7325 11.8693 9.02651 0 0 0
84 3 13.8968 11.0581 10.41 0 0 0
87 3 15.0992 11.1724 11.4104 0 0 0
110 5 14.4784 11.4741 8.33022 0 0 0
115 5 13.8352 9.97876 10.2455 0 0 0
119 5 14.9291 11.9653 12.1468 0 0 0
120 5 16.1326 11.2193 11.0455 0 0 0
121 5 15.0673 10.249 11.9822 0 0 0
1 1 -7.6716 -0.405162 -8.88162 0 0 0
31 1 -7.58312 -0.954317 -7.46229 0 0 0
33 6 -8.22531 -1.08486 -9.52901 0 0 0
59 6 8.02921 -0.776886 8.07852 0 0 0
67 6 -7.76164 -0.126523 -6.77419 0 0 0
68 6 -8.32985 -1.73729 -7.32084 0 0 0
2 1 -6.24753 -0.246178 -9.36956 0 0 0
3 1 -5.43136 -0.526514 -8.11913 0 0 0
4 2 -6.21906 -1.47865 -7.31014 0 0 0
34 6 -6.02901 -0.977836 -10.1463 0 0 0
36 6 -4.47446 -0.940706 -8.43422 0 0 0
15 5 0.546165 1.41952 -0.420598 0 0 0
12 3 -2.80909 0.417225 -2.25176 0 0 0
13 3 -1.61887 1.00709 -1.87321 0 0 0
14 3 -0.935843 0.571514 -0.748249 0 0 0
40 6 -3.30401 0.810721 -3.04977 0 0 0
41 6 -1.24037 1.77693 -2.42756 0 0 0
69 1 13.1329 10.0769 15.2448 0 0 0
70 2 11.1869 11.0978 15.2307 0 0 0
86 3 11.4305 8.96085 13.9795 0 0 0
88 4 11.8589 10.1254 14.8043 0 0 0
108 5 9.40354 9.10462 13.9146 0 0 0
118 5 11.2998 8.20389 14.7585 0 0 0
122 6 13.4715 10.7799 15.8388 0 0 0
6 3 -6.69059 -1.73066 -4.89043 0 0 0
38 6 -7.68021 -1.92075 -5.04099 0 0 0
39 6 -6.93673 -1.82912 -2.82512 0 0 0
5 3 -5.80843 -1.50957 -5.9586 0 0 0
7 3 -6.25391 -1.69569 -3.57279 0 0 0
8 3 -4.91992 -1.45074 -3.27249 0 0 0
9 3 -4.4814 -1.35736 -1.95385 0 0 0
10 4 -5.16305 -1.94331 -1.07183 0 0 0
11 3 -3.3314 -0.679682 -1.55152 0 0 0
27 3 -1.49315 -0.471273 0.000201393 0 0 0
28 3 -2.67473 -1.0762 -0.39365 0 0 0
29 3 -4.02451 -1.37076 -4.33943 0 0 0
30 3 -4.45657 -1.38444 -5.64506 0 0 0
65 6 -3.02155 -1.3229 -4.18114 0 0 0
66 6 -3.73322 -1.30986 -6.35572 0 0 0
ITEM: TIMESTEP
125
ITEM: NUMBER OF ATOMS
122
ITEM: BOX BOUNDS pp pp pp
0.0000000000000000e+00 2.0000000000000000e+01
0.0000000000000000e+00 2.0000000000000000e+01
0.0000000000000000e+00 2.0000000000000000e+01
ITEM: ATOMS id type xu yu zu vx vy vz
16 1 1.0475 0.615138 1.11179 0 0 0
17 1 2.33943 1.25413 1.59986 0 0 0
18 1 2.7492 0.545773 2.88901 0 0 0
19 1 4.03935 1.16846 3.40822 0 0 0
20 1 4.44457 0.453299 4.69308 0 0 0
21 1 5.73856 1.0802 5.20127 0 0 0
22 1 6.15394 0.365839 6.48155 0 0 0
42 6 0.282421 0.753688 1.87551 0 0 0
44 6 3.11395 1.13417 0.842421 0 0 0
45 6 2.16976 2.31366 1.7912 0 0 0
46 6 1.96397 0.659967 3.63655 0 0 0
48 6 4.82528 1.05424 2.66198 0 0 0
49 6 3.87725 2.2265 3.61321 0 0 0
50 6 3.66064 0.569045 5.44196 0 0 0
52 6 6.5209 0.968839 4.45087 0 0 0
53 6 5.57512 2.13777 5.40858 0 0 0
56 6 8.24183 0.875458 6.26464 0 0 0
113 5 5.95052 10.4606 5.72539 0 0 0
116 5 6.49022 12.3928 6.45042 0 0 0
43 6 1.22853 -0.44413 0.928403 0 0 0
47 6 2.91129 -0.513707 2.6899 0 0 0
51 6 4.60433 -0.606022 4.49104 0 0 0
55 6 6.31646 -0.692481 6.27752 0 0 0
63 6 -1.06956 -0.839255 0.855719 0 0 0
64 6 -3.05056 -1.84371 0.178192 0 0 0
54 6 5.3669 0.477469 7.2277 0 0 0
91 5 6.25776 6.27779 8.6163 0 0 0
23 1 7.4452 0.992539 6.99946 0 0 0
24 1 7.82166 0.27322 8.29066 0 0 0
25 1 9.03182 0.931815 8.93906 0 0 0
26 5 9.02076 0.36543 10.6426 0 0 0
32 6 -8.11249 0.595767 -8.87803 0 0 0
57 6 7.27749 2.05137 7.19754 0 0 0
58 6 6.99039 0.335299 8.99219 0 0 0
60 6 9.94998 0.64084 8.42554 0 0 0
61 6 8.92589 2.01606 8.92608 0 0 0
62 7 9.74207 1.44734 11.0336 0 0 0
90 5 7.08263 6.21618 10.7868 0 0 0
35 6 -6.0383 0.744286 -9.76377 0 0 0
37 6 -5.28053 0.400726 -7.5872 0 0 0
72 3 6.26181 7.21078 9.19375 0 0 0
74 3 5.9158 8.43591 8.24705 0 0 0
92 5 5.32413 7.06324 9.748 0 0 0
95 5 5.49092 9.24824 8.84376 0 0 0
96 5 5.03018 8.02188 7.76144 0 0 0
71 3 7.51451 6.99176 10.1456 0 0 0
73 3 8.1854 8.11908 11.1023 0 0 0
75 3 9.61754 8.0465 11.9094 0 0 0
76 3 10.9093 11.8563 8.41276 0 0 0
77 3 12.4868 11.8446 8.02176 0 0 0
78 3 9.63629 12.1276 7.42746 0 0 0
79 3 6.80285 8.98746 7.04402 0 0 0
80 3 10.1119 9.06488 13.1085 0 0 0
82 3 8.08432 12.1501 7.86584 0 0 0
83 4 6.56564 10.3809 6.54884 0 0 0
85 4 7.04391 11.6553 6.9145 0 0 0
89 5 8.20562 6.45919 9.47723 0 0 0
93 5 7.35972 8.40199 11.7591 0 0 0
94 5 8.34635 8.93437 10.4244 0 0 0
97 5 9.79625 7.0181 12.2452 0 0 0
98 5 10.3278 8.24437 11.0988 0 0 0
99 5 10.8093 12.5671 9.23723 0 0 0
100 5 10.7737 10.8358 8.76022 0 0 0
101 5 12.7862 12.7303 7.4525 0 0 0
102 5 12.7104 11.0026 7.35202 0 0 0
103 5 9.71052 13.1479 7.03928 0 0 0
104 5 9.68855 11.4854 6.54588 0 0 0
105 5 6.48911 8.42798 6.16038 0 0 0
106 5 7.86694 8.79159 7.10827 0 0 0
107 5 10.2179 10.0701 12.6864 0 0 0
109 5 14.0235 12.9179 9.1026 0 0 0
111 5 7.74458 11.8686 8.8691 0 0 0
112 5 7.85031 13.2176 7.83975 0 0 0
114 5 13.1287 11.3489 11.1184 0 0 0
117 5 12.3576 8.65531 13.5066 0 0 0
81 3 13.7275 11.8596 9.01847 0 0 0
84 3 13.8991 11.0663 10.4111 0 0 0
87 3 15.1199 11.1815 11.3921 0 0 0
110 5 14.4545 11.4348 8.31895 0 0 0
115 5 13.8248 9.98706 10.2546 0 0 0
119 5 14.9678 11.9831 12.1229 0 0 0
120 5 16.149 11.2221 11.0118 0 0 0
121 5 15.09 10.2634 11.9742 0 0 0
1 1 -7.66364 -0.391922 -8.90379 0 0 0
31 1 -7.57287 -0.94792 -7.48409 0 0 0
33 6 -8.22247 -1.06749 -9.55122 0 0 0
59 6 8.04341 -0.77421 8.08523 0 0 0
67 6 -7.74719 -0.122668 -6.79213 0 0 0
68 6 -8.32507 -1.72599 -7.3466 0 0 0
2 1 -6.23148 -0.259626 -9.38533 0 0 0
3 1 -5.41782 -0.53598 -8.12995 0 0 0
4 2 -6.21116 -1.48592 -7.32603 0 0 0
34 6 -6.02122 -1.00996 -10.1466 0 0 0
36 6 -4.45901 -0.951303 -8.43789 0 0 0
15 5 0.538927 1.41856 -0.411001 0 0 0
12 3 -2.81417 0.418387 -2.24228 0 0 0
13 3 -1.6285 1.01551 -1.85244 0 0 0
14 3 -0.945922 0.572484 -0.730989 0 0 0
40 6 -3.30458 0.810645 -3.04409 0 0 0
41 6 -1.25328 1.79316 -2.39644 0 0 0
69 1 13.1635 10.0938 15.205 0 0 0
70 2 11.1932 11.0588 15.2692 0 0 0
86 3 11.4266 8.92755 14.0151 0 0 0
88 4 11.8724 10.1053 14.8132 0 0 0
108 5 9.39305 9.09073 13.9336 0 0 0
118 5 11.2742 8.19055 14.8102 0 0 0
122 6 13.5033 10.8097 15.7842 0 0 0
6 3 -6.6786 -1.74125 -4.90696 0 0 0
38 6 -7.66823 -1.92712 -5.06054 0 0 0
39 6 -6.93217 -1.83221 -2.84252 0 0 0
5 3 -5.79469 -1.52904 -5.97305 0 0 0
7 3 -6.24574 -1.70283 -3.58607 0 0 0
8 3 -4.91248 -1.45675 -3.2816 0 0 0
9 3 -4.48837 -1.35301 -1.95323 0 0 0
10 4 -5.17967 -1.91693 -1.07412 0 0 0
11 3 -3.33473 -0.675901 -1.54619 0 0 0
27 3 -1.50147 -0.472376 0.0140922 0 0 0
28 3 -2.68559 -1.0748 -0.38342 0 0 0
29 3 -4.01362 -1.39207 -4.34246 0 0 0
30 3 -4.44145 -1.42371 -5.65449 0 0 0
65 6 -3.01056 -1.34363 -4.17889 0 0 0
66 6 -3.71602 -1.37458 -6.36494 0 0 0
ITEM: TIMESTEP
131
ITEM: NUMBER OF ATOMS
122
ITEM: BOX BOUNDS pp pp pp
0.0000000000000000e+00 2.0000000000000000e+01
0.0000000000000000e+00 2.0000000000000000e+01
0.0000000000000000e+00 2.0000000000000000e+01
ITEM: ATOMS id type xu yu zu vx vy vz
16 1 1.04719 0.615162 1.11219 0 0 0
17 1 2.33934 1.25431 1.59953 0 0 0
18 1 2.74953 0.546263 2.88869 0 0 0
19 1 4.03972 1.1691 3.40768 0 0 0
20 1 4.44503 0.453875 4.69251 0 0 0
21 1 5.73916 1.08044 5.20094 0 0 0
22 1 6.15448 0.365822 6.48123 0 0 0
42 6 0.282435 0.753644 1.87623 0 0 0
44 6 3.11358 1.13413 0.841831 0 0 0
45 6 2.16977 2.3139 1.79064 0 0 0
46 6 1.96442 0.660476 3.63634 0 0 0
48 6 4.82555 1.05493 2.66132 0 0 0
49 6 3.87756 2.22713 3.61267 0 0 0
50 6 3.66106 0.569643 5.44134 0 0 0
52 6 6.52147 0.969131 4.4505 0 0 0
53 6 5.57579 2.13801 5.40833 0 0 0
56 6 8.24267 0.87487 6.26581 0 0 0
113 5 5.95132 10.4596 5.72425 0 0 0
116 5 6.48976 12.3921 6.44924 0 0 0
43 6 1.22817 -0.444098 0.928687 0 0 0
47 6 2.91166 -0.513223 2.68966 0 0 0
51 6 4.60458 -0.605458 4.49035 0 0 0
55 6 6.31698 -0.692447 6.27692 0 0 0
63 6 -1.07044 -0.839194 0.856435 0 0 0
64 6 -3.05168 -1.84353 0.178534 0 0 0
54 6 5.36709 0.477205 7.22704 0 0 0
91 5 6.25985 6.27755 8.61597 0 0 0
23 1 7.44564 0.992148 7.00019 0 0 0
24 1 7.82143 0.273051 8.29195 0 0 0
25 1 9.0301 0.932593 8.94271 0 0 0
26 5 9.01591 0.370363 10.6478 0 0 0
32 6 -8.1119 0.596404 -8.87961 0 0 0
57 6 7.27794 2.05106 7.19785 0 0 0
58 6 6.98902 0.333881 8.99221 0 0 0
60 6 9.94947 0.640255 8.4322 0 0 0
61 6 8.92467 2.01685 8.927 0 0 0
62 7 9.73953 1.45113 11.0378 0 0 0
90 5 7.08002 6.21853 10.7889 0 0 0
35 6 -6.03638 0.742743 -9.76594 0 0 0
37 6 -5.27981 0.400026 -7.5881 0 0 0
72 3 6.26275 7.2107 9.19316 0 0 0
74 3 5.91717 8.43521 8.2457 0 0 0
92 5 5.32475 7.0631 9.74677 0 0 0
95 5 5.49152 9.24735 8.84206 0 0 0
96 5 5.03229 8.02033 7.7594 0 0 0
71 3 7.51388 6.99237 10.1469 0 0 0
73 3 8.18551 8.12041 11.1022 0 0 0
75 3 9.61657 8.04587 11.9113 0 0 0
76 3 10.9083 11.8563 8.41311 0 0 0
77 3 12.4857 11.8451 8.02188 0 0 0
78 3 9.63552 12.1295 7.42803 0 0 0
79 3 6.8049 8.98714 7.04331 0 0 0
80 3 10.1116 9.06398 13.1101 0 0 0
82 3 8.08338 12.1503 7.86553 0 0 0