ITEM: TIMESTEP
0
ITEM: NUMBER OF ATOMS
432
ITEM: BOX BOUNDS pp pp pp
-2.0223399999999998e+00 4.7647511000000002e+01
-2.0223399999999998e+00 3.2115000999999999e+01
-2.0223399999999998e+00 2.3101209999999998e+01
ITEM: ATOMS id type xu yu zu vx vy vz
73 1 7.33781 0.399019 2.91395 -0 -0 0
74 2 7.89933 2.53329 1.81202 0 0 -0
85 1 7.95352 5.21428 1.1769 0 0 0
145 1 14.4174 1.3198 3.84162 -0 0 -0
157 1 15.8186 5.34396 0.9883 0 0 -0
146 2 15.3738 2.94002 2.27264 0 -0 -0
217 1 22.2238 0.962172 3.67409 0 0 -0
86 2 8.2669 7.62842 0.898794 -0 -0 -0
97 1 8.25382 10.3907 0.849907 -0 -0 0
98 2 8.41254 12.8169 0.563424 -0 -0 -0
169 1 16.2211 10.4391 0.318573 0 0 -0
158 2 16.2716 7.67602 0.394002 -0 0 0
170 2 16.309 12.8888 0.257983 -0 0 0
2 2 0.264544 -0.848585 4.48934 0 0 0
3 1 2.87868 0.217828 5.23058 0 -0 0
6 2 2.41675 -1.32817 7.61564 -0 -0 -0
377 1 -0.745565 5.53126 10.141 0 -0 -0
18 2 0.726537 5.9528 8.18655 0 0 -0
7 1 3.72238 -0.995881 10.0322 -0 0 -0
4 2 5.26142 0.893136 4.83491 0 -0 -0
5 1 7.77663 2.11967 5.80349 0 -0 -0
17 1 5.98663 5.84088 7.77197 -0 0 0
78 2 9.19445 0.15396 5.13167 -0 0 0
90 2 8.03535 4.81371 6.77186 -0 0 0
20 2 4.77121 6.32163 10.2695 -0 -0 0
75 1 11.4547 -1.45148 5.85746 -0 0 -0
76 2 13.7068 -0.365996 5.94839 0 0 0
77 1 15.0551 -1.10986 8.38233 0 0 0
147 1 19.8612 -1.53096 7.15205 0 -0 0
148 2 21.6758 -0.0725264 6.20766 0 0 0
159 1 19.1151 6.16423 7.87897 -0 0 -0
150 2 17.5238 -0.769945 8.70337 -0 -0 0
152 2 21.7097 -0.476135 10.3542 0 0 0
15 1 1.89937 7.35729 5.99388 0 0 0
14 2 -0.425268 8.09364 4.48446 0 0 -0
25 1 -1.12496 10.9094 4.47187 0 0 0
26 2 0.208029 12.9853 4.88153 0 0 0
27 1 2.99841 13.5209 4.94192 0 -0 0
30 2 1.56157 10.0696 9.82896 0 -0 -0
389 1 -0.625378 11.2241 9.85167 0 -0 0
19 1 2.52338 7.3813 9.96348 0 -0 0
87 1 9.89107 7.00637 6.49844 -0 0 0
16 2 4.36215 7.62765 6.29175 0 0 -0
28 2 5.14317 12.3065 5.24531 0 0 -0
29 1 6.17796 9.84824 6.09335 0 -0 0
102 2 8.61382 9.53841 6.55264 0 -0 0
41 1 6.79474 14.6188 5.48404 -0 0 -0
88 2 12.1067 8.10701 6.78893 0 -0 -0
99 1 11.2233 10.8852 6.84264 -0 -0 -0
100 2 12.8806 12.7119 7.34729 -0 -0 -0
89 1 14.3321 7.56087 8.38828 0 -0 -0
101 1 15.6811 12.913 8.22784 0 0 -0
162 2 16.5633 6.58486 8.98342 -0 -0 -0
164 2 20.3934 6.81575 10.3891 -0 0 -0
163 1 18.8534 8.8342 10.1478 -0 -0 0
160 2 20.5917 8.04023 7.20164 0 -0 0
171 1 19.9948 10.812 7.16608 0 0 -0
172 2 21.0943 12.9769 6.65302 -0 -0 -0
174 2 17.4274 11.0902 8.4355 0 0 0
175 1 18.8861 12.8856 10.2469 0 -0 0
176 2 20.7253 11.1513 10.0828 -0 -0 0
10 2 -0.368121 -1.03992 16.2855 0 -0 -0
11 1 1.7052 0.743838 16.761 0 0 -0
8 2 5.28559 -1.04298 11.9115 0 0 -0
9 1 7.79012 -1.61669 12.8981 0 -0 0
82 2 9.80697 -0.51292 13.8463 -0 0 0
83 1 10.2883 1.19224 15.9841 -0 -0 -0
79 1 11.4932 -2.01778 12.1176 -0 0 -0
80 2 13.5681 -1.40079 10.885 0 0 0
81 1 16.0128 -1.77886 12.2802 -0 -0 0
165 1 22.165 6.3716 12.4854 0 -0 0
151 1 19.3009 -0.10176 10.779 0 -0 0
154 2 17.7398 -0.178368 13.1176 -0 0 -0
155 1 18.5026 0.963752 15.5302 0 -0 0
156 2 19.2042 2.96506 16.7463 0 0 -0
381 1 -1.9347 7.79466 13.088 -0 -0 -0
22 2 0.349467 7.24217 12.1414 0 0 -0
31 1 1.8125 9.70449 12.6851 0 0 -0
34 2 -1.0397 10.6633 12.7068 -0 0 -0
21 1 6.05535 7.42247 12.4953 0 -0 -0
32 2 4.28961 9.60472 13.1558 0 0 0
33 1 6.71909 11.0021 12.5339 0 -0 -0
94 2 8.2569 8.59161 12.3774 0 0 0
106 2 7.81122 13.2137 12.3455 0 0 -0
91 1 11.056 8.67112 11.7293 0 -0 0
93 1 15.7286 6.75398 11.727 -0 -0 0
92 2 13.1015 7.4327 10.9899 0 -0 -0
103 1 10.6963 13.2821 12.2068 -0 -0 0
104 2 12.1699 11.2662 12.104 0 0 0
105 1 15.0174 11.0192 11.8588 -0 0 -0
178 2 16.1031 13.1606 11.1556 -0 -0 -0
166 2 16.8866 8.8774 12.2374 0 -0 -0
23 1 3.92669 5.23541 17.9031 -0 -0 -0
12 2 3.10894 2.63943 17.4409 0 0 -0
84 2 11.1876 2.84506 17.5356 -0 -0 0
95 1 11.9239 5.25428 18.6416 -0 0 -0
167 1 19.5304 5.28798 18.1855 0 -0 0
36 2 4.56058 12.8175 18.004 -0 0 -0
35 1 4.61267 10.3719 17.7366 -0 -0 -0
24 2 4.52265 7.61101 17.9708 -0 0 -0
108 2 12.5126 12.7605 18.6751 -0 -0 0
107 1 12.5642 10.3336 18.7782 -0 -0 0
96 2 12.6198 7.5764 18.8805 -0 0 0
180 2 20.0815 12.8147 18.8185 -0 -0 -0
168 2 20.1376 7.63062 18.5157 -0 -0 0
179 1 19.9982 10.3726 18.7531 0 0 0
50 2 0.0429279 21.9719 3.56565 -0 -0 -0
51 1 2.83449 22.4381 4.13573 -0 -0 0
109 1 8.45359 15.5606 0.752127 0 0 0
110 2 8.3487 17.9845 0.389519 -0 -0 -0
121 1 8.37677 20.722 0.428894 -0 0 -0
122 2 8.49438 23.0038 1.3095 -0 0 -0
181 1 16.0635 15.6453 0.300435 0 -0 0
193 1 16.1289 20.8105 0.948116 0 -0 0
182 2 16.1782 18.0929 0.37224 0 -0 -0
194 2 16.5092 23.2405 1.02602 -0 -0 -0
61 1 -0.236453 24.7631 3.90508 0 -0 -0
62 2 2.19452 25.2215 4.16494 -0 -0 -0
133 1 9.17173 25.4009 2.45775 0 -0 0
134 2 9.13561 27.4044 3.85953 0 -0 0
205 1 16.4846 25.4046 2.73245 0 -0 0
206 2 16.4396 27.3721 4.2509 -0 0 0
37 1 -0.543557 15.6668 5.89727 0 -0 -0
38 2 0.264896 17.8529 4.94708 -0 0 -0
39 1 3.09205 18.1806 4.8698 -0 0 -0
49 1 -1.35173 20.1069 4.44489 -0 0 -0
42 2 -0.17237 15.7183 8.79399 -0 -0 -0
40 2 4.35568 16.0486 4.98478 0 -0 0
52 2 4.47855 20.7214 4.90971 -0 0 -0
53 1 7.16128 20.6447 5.87284 0 0 0
114 2 9.19278 15.0659 5.89014 0 0 -0
126 2 9.34782 20.7914 7.03615 -0 0 0
127 1 10.3927 21.4524 9.62328 0 0 0
111 1 11.7907 15.3947 6.92742 -0 -0 0
112 2 13.062 17.5044 7.38 -0 0 -0
123 1 12.1722 20.1402 6.50588 -0 0 0
124 2 14.0662 21.5102 5.68366 -0 0 -0
128 2 12.7368 22.2369 9.40404 0 0 0
113 1 15.8178 17.5647 8.2474 -0 -0 0
125 1 15.3604 21.7353 8.19056 0 -0 -0
202 2 16.3799 23.3795 10.419 0 0 -0
183 1 19.7211 15.4067 6.56533 0 -0 0
184 2 20.6868 17.5109 7.47094 -0 -0 0
195 1 19.9636 20.2665 7.28371 -0 -0 -0
196 2 21.6794 21.8909 6.5591 -0 0 0
188 2 20.8476 15.1572 10.2561 -0 0 -0
186 2 17.2142 15.4696 7.92541 0 0 -0
198 2 17.2877 20.1101 8.3204 -0 0 -0
187 1 19.0747 16.9248 9.84792 -0 0 -0
200 2 20.8481 20.5547 10.2452 0 -0 0
199 1 18.5213 21.485 10.533 0 0 0
63 1 3.72813 27.4899 4.91729 0 0 -0
54 2 -0.927374 24.482 6.65084 0 0 0
66 2 1.31113 28.5197 6.0596 0 -0 -0
425 1 1.40091 26.1908 6.97799 -0 0 -0
365 1 0.878567 -2.87211 6.39313 -0 0 -0
64 2 4.30942 26.5902 7.15781 -0 0 -0
135 1 9.96278 28.4776 6.28404 -0 -0 0
65 1 6.29065 27.3552 8.99348 0 0 0
138 2 8.73766 27.8333 8.76624 0 -0 0
136 2 12.0134 29.9017 6.37917 0 0 -0
137 1 14.5758 28.5837 6.16837 0 0 0
210 2 16.3894 28.7815 7.86248 -0 0 0
207 1 18.4776 28.3371 6.00179 0 -0 0
208 2 20.2862 29.8477 6.78112 0 0 -0
209 1 22.124 28.7956 8.71372 -0 -0 0
211 1 17.7682 28.5875 10.3579 -0 -0 -0
43 1 1.23907 15.899 11.2579 -0 0 0
46 2 -1.45747 15.3762 12.4023 -0 0 0
55 1 3.03114 18.4177 14.501 -0 -0 0
58 2 0.171361 19.0985 14.288 0 0 -0
405 1 -1.94301 17.2386 13.9846 -0 0 -0
417 1 -0.755246 21.3774 14.5005 0 0 -0
44 2 3.33429 16.2427 12.5821 0 -0 0
45 1 6.12646 15.5014 12.7388 -0 0 -0
56 2 4.65672 20.3289 14.4493 0 0 0
57 1 7.17497 19.9708 13.2356 0 0 -0
118 2 7.75232 17.2251 13.4571 -0 0 0
130 2 9.27526 20.292 11.9288 -0 -0 0
115 1 10.3657 17.6669 12.4575 0 -0 -0
116 2 12.0287 15.8162 12.2565 -0 0 -0
117 1 14.8477 15.6745 11.7836 -0 -0 0
190 2 16.5574 17.3332 11.0777 -0 0 -0
189 1 22.7133 15.317 12.419 -0 0 0
67 1 3.62828 27.4652 13.3463 0 -0 0
70 2 0.903202 27.2264 14.0466 0 0 -0
429 1 -1.43897 27.7374 14.5373 0 -0 0
72 2 5.83942 27.2656 15.2416 0 -0 0
68 2 5.35861 27.8702 11.6042 -0 -0 -0
69 1 7.53071 28.5176 13.2797 -0 0 -0
142 2 9.35546 30.0442 12.4269 -0 0 0
129 1 14.0987 24.3322 10.77 0 0 -0
144 2 13.8063 27.4165 16.1117 -0 -0 -0
139 1 10.765 28.0362 10.7277 0 -0 -0
140 2 12.7501 26.7689 11.5398 -0 0 -0
141 1 14.4857 27.9825 13.4783 -0 -0 0
214 2 16.0688 29.5751 12.4204 -0 0 0
213 1 22.1593 28.3857 12.8768 0 -0 -0
216 2 21.5997 27.3405 15.4045 -0 -0 0
212 2 20.2223 28.4835 10.7782 -0 -0 -0
48 2 3.86671 17.883 17.2873 0 -0 -0
47 1 4.39496 15.5756 17.9868 0 0 0
59 1 4.64308 20.6346 17.2808 0 -0 0
60 2 4.96949 22.988 17.9675 0 0 -0
119 1 12.2071 15.5013 18.5437 -0 0 -0
120 2 12.2472 17.9264 18.6716 0 -0 0
131 1 12.3337 20.6819 18.7062 -0 -0 0
132 2 12.5904 23.0917 18.5087 -0 -0 0
191 1 19.8635 15.5558 18.9205 0 0 0
192 2 20.0248 17.9907 18.758 -0 -0 -0
203 1 19.9576 20.7422 18.6463 -0 0 0
204 2 20.3115 23.0738 17.9928 0 0 -0
71 1 5.5309 25.4557 16.8999 0 -0 0
143 1 13.2882 25.616 17.6673 0 -0 -0
215 1 20.8604 25.5367 16.8794 0 -0 -0
218 2 22.9551 2.7631 2.19128 0 0 -0
229 1 23.5088 5.22384 1.07873 0 0 -0
289 1 30.0291 0.868746 2.92132 0 -0 0
290 2 30.5546 2.65876 1.3673 -0 0 0
301 1 31.2534 5.20223 0.541128 -0 0 -0
361 1 37.9898 1.03366 3.81599 -0 0 0
362 2 38.3069 2.84001 2.15558 0 0 -0
373 1 38.8732 5.30062 1.07328 -0 0 0
1 1 -2.1724 -1.02797 3.87197 0 -0 -0
230 2 23.8632 7.5544 0.418431 0 0 0
241 1 23.7975 10.3047 0.303827 0 -0 -0
242 2 23.9624 12.7402 0.141161 0 0 -0
302 2 31.4999 7.59495 0.346005 -0 -0 0
313 1 31.577 10.3718 0.380836 -0 0 0
314 2 31.6176 12.7766 0.506638 -0 -0 -0
374 2 39.2108 7.64981 1.77134 0 -0 0
385 1 39.9733 10.406 1.76503 0 0 -0
386 2 39.4431 12.7152 1.07409 0 -0 -0
149 1 23.6203 -0.170012 8.29701 -0 0 -0
219 1 27.7677 -1.24042 6.62759 -0 -0 0
231 1 27.4643 4.93678 8.65357 0 -0 0
222 2 26.075 -0.281612 8.70504 -0 0 0
220 2 29.3342 0.367197 5.56776 -0 -0 0
291 1 34.4606 -1.73356 6.60351 -0 -0 -0
232 2 29.7638 4.02424 8.31766 -0 -0 -0
221 1 31.0825 1.58545 7.50186 -0 -0 0
233 1 31.0937 6.13388 9.72831 -0 0 0
294 2 33.0371 0.261542 8.30393 0 -0 -0
295 1 35.0495 0.46312 10.2901 -0 0 -0
292 2 36.2829 -0.191853 5.77638 -0 0 -0
293 1 38.4354 0.466563 7.47278 0 0 -0
366 2 40.1807 0.850034 5.73887 -0 -0 0
296 2 37.5028 0.942085 10.0963 -0 0 0
363 1 42.9097 1.08452 5.03481 -0 -0 -0
364 2 45.2562 0.598732 4.53442 -0 -0 0
13 1 -2.29669 6.4662 4.46348 -0 -0 -0
243 1 27.2669 10.973 7.96836 0 -0 0
244 2 28.9805 12.6345 7.27897 0 -0 -0
234 2 25.3044 6.81203 8.52401 -0 0 -0
246 2 24.7494 11.3626 9.20686 -0 -0 -0
173 1 22.9798 13.1332 8.79847 0 0 0
161 1 22.9761 7.73871 8.80609 -0 0 0
303 1 34.5404 7.99511 7.08596 0 -0 -0
245 1 31.798 12.4865 6.80898 -0 -0 0
306 2 33.4534 6.84077 9.40314 0 0 0
318 2 33.4487 10.627 6.59387 0 -0 -0
330 2 33.1464 15.013 6.85352 0 -0 -0
315 1 36.0541 11.0853 5.59148 0 0 -0
304 2 36.6472 8.34179 5.79561 -0 -0 0
316 2 37.6883 12.7933 6.32582 -0 0 0
378 2 40.8106 9.85384 4.55809 0 0 -0
305 1 39.1664 7.95751 4.60045 0 -0 -0
317 1 40.4689 12.0431 6.46447 -0 -0 0
375 1 43.663 9.09825 4.71655 -0 -0 0
376 2 44.6309 6.83614 4.53578 0 -0 -0
387 1 45.0524 13.077 6.20045 -0 -0 -0
388 2 45.6983 11.0578 4.90392 0 -0 0
390 2 42.5998 12.5111 7.6912 0 -0 -0
391 1 44.0529 12.7184 10.1439 0 -0 -0
392 2 46.5326 12.7021 9.87958 0 0 0
223 1 27.4449 -0.505391 11.1984 0 -0 -0
226 2 25.3539 -0.024054 13.052 -0 0 -0
153 1 23.5345 -1.53299 12.2966 0 0 0
227 1 27.4041 0.935323 14.7898 0 -0 -0
228 2 27.4186 2.9336 16.2641 0 -0 0
224 2 29.2434 -0.312114 12.907 -0 0 -0
225 1 31.7882 -1.62828 12.6963 -0 -0 -0
298 2 33.8139 -0.170867 12.7716 0 0 -0
299 1 34.5969 0.895233 15.2132 -0 0 0
300 2 34.6338 2.90332 16.6025 0 -0 0
297 1 39.4976 1.71436 11.9353 0 0 0
370 2 40.134 0.775714 14.1441 0 0 -0
382 2 40.9541 5.81883 14.9628 0 0 -0
367 1 42.5286 -0.22553 12.9376 -0 0 0
368 2 42.4511 2.13997 12.1173 -0 -0 -0
379 1 44.787 3.86299 12.4988 -0 0 -0
380 2 46.5933 5.37945 11.7195 -0 -0 0
371 1 41.6583 3.04663 14.9313 -0 -0 -0
372 2 44.0699 3.57736 15.2364 -0 -0 -0
383 1 43.7271 6.36535 15.5533 -0 0 -0
235 1 26.5215 8.20606 10.7364 -0 0 -0
177 1 23.13 10.7859 11.5843 0 0 0
236 2 28.4326 6.569 10.8976 0 -0 -0
238 2 23.8473 8.03147 11.7649 -0 0 -0
247 1 26.611 12.8325 11.125 0 -0 0
248 2 28.0082 10.7393 10.796 -0 0 0
250 2 24.0989 12.8936 12.4777 -0 -0 0
237 1 29.7343 6.74238 13.4021 -0 0 -0
307 1 34.4772 7.44264 12.0033 0 -0 -0
249 1 30.7699 10.7491 11.6391 -0 -0 -0
310 2 31.615 8.05558 12.4498 0 0 -0
319 1 34.6397 13.2297 13.0949 -0 -0 -0
322 2 32.0339 12.8666 12.0879 -0 0 -0
406 2 40.7926 14.7665 14.1783 -0 0 -0
309 1 39.3245 7.53774 14.1662 0 0 -0
308 2 36.639 7.57468 13.2105 0 0 0
320 2 37.033 13.6505 13.5473 -0 0 0
321 1 39.4735 12.228 14.0873 0 -0 0
394 2 40.712 10.0792 14.1856 -0 0 -0
396 2 44.2973 12.643 13.0781 0 0 -0
395 1 43.5395 10.4377 14.0181 -0 0 -0
384 2 45.133 8.18091 14.5892 0 -0 0
393 1 -2.46144 12.7108 12.7451 0 -0 -0
239 1 27.3426 5.05691 18.0128 -0 -0 0
311 1 35.3736 5.30733 17.7036 0 -0 -0
240 2 27.703 7.4884 18.0708 -0 -0 -0
251 1 27.6393 10.1956 18.6746 0 0 -0
252 2 27.7599 12.6409 18.7538 0 -0 0
324 2 35.3858 12.7374 18.3463 0 -0 -0
323 1 35.4922 10.3156 18.6849 -0 -0 -0
312 2 35.4626 7.57517 18.6119 0 0 -0
253 1 23.7507 15.4815 0.238229 0 -0 0
254 2 23.8338 17.9238 0.30439 -0 0 0
265 1 23.6942 20.6652 0.553252 0 -0 0
266 2 24.2942 23.0097 0.882299 0 0 -0
325 1 31.3119 15.5343 0.374704 -0 -0 -0
326 2 31.2563 17.9503 0.278348 -0 -0 0
337 1 31.2033 20.7127 0.17841 0 0 -0
338 2 31.8926 23.0378 0.417726 0 0 0
397 1 39.2702 15.4741 1.01032 0 0 0
398 2 39.2059 17.9226 1.23539 0 0 0
409 1 39.303 20.6888 1.08719 -0 0 0
410 2 39.8968 23.066 1.16907 -0 -0 0
277 1 24.6316 25.3263 2.33023 0 -0 -0
278 2 25.3218 27.3315 3.54635 -0 0 -0
349 1 32.6386 25.4475 1.50731 -0 0 -0
350 2 33.5632 27.1145 3.03618 -0 0 -0
421 1 40.7154 25.6638 1.62395 -0 -0 0
422 2 42.1201 27.5595 2.30273 -0 0 -0
423 1 44.1932 29.3467 2.76766 -0 0 -0
424 2 46.1936 30.7009 3.11795 0 0 0
255 1 27.7303 15.1512 7.90039 -0 0 -0
256 2 28.8331 17.2799 7.18515 -0 0 0
267 1 26.9447 19.4078 6.8156 0 0 0
268 2 28.1063 21.5272 7.33388 0 -0 -0
271 1 27.2839 21.7165 10.079 0 0 0
258 2 24.9413 15.4031 8.80421 0 -0 -0
270 2 24.9788 19.4276 8.90563 0 0 0
185 1 23.0917 17.1266 8.97177 -0 0 -0
197 1 23.4362 21.4432 8.66634 -0 0 0
257 1 31.6794 17.0348 6.9316 -0 -0 -0
269 1 30.7401 20.8495 8.05636 0 0 0
342 2 32.7967 19.6283 7.31399 0 -0 0
339 1 35.6086 19.7211 6.69418 0 0 0
328 2 37.1385 17.3006 6.57761 -0 0 0
340 2 37.8242 20.8699 6.62391 0 -0 -0
329 1 39.6056 18.6748 6.06149 0 0 0
341 1 39.1143 21.9672 8.84597 -0 -0 0
414 2 41.3655 20.9121 9.14385 0 0 -0
327 1 36.0306 15.095 6.7363 -0 -0 -0
399 1 44.9471 17.7037 6.45691 -0 -0 -0
400 2 46.232 15.6226 6.05951 -0 -0 0
411 1 43.4877 21.1145 6.92958 -0 0 -0
412 2 45.7805 20.5477 6.01693 -0 -0 0
402 2 42.0897 18.598 6.49272 0 -0 -0
403 1 42.4442 18.2594 9.34546 -0 0 0
401 1 -2.54602 15.5745 9.54677 -0 0 0
413 1 -2.7116 22.9245 7.39561 -0 -0 -0
404 2 44.5702 16.9875 9.28948 0 -0 0
416 2 44.6135 22.772 8.95714 -0 0 0
279 1 26.0937 28.5121 5.93836 -0 0 -0
280 2 27.8319 30.1128 6.75266 0 -0 -0
282 2 24.54 28.474 8.2852 -0 0 -0
283 1 26.312 29.1182 10.3716 0 -0 0
351 1 34.0408 28.8211 5.17046 0 0 -0
354 2 32.3434 30.3141 6.90191 -0 -0 0
281 1 30.2708 29.7376 8.15871 -0 0 -0
352 2 36.0494 29.9416 6.12147 0 0 -0
426 2 40.1001 29.2843 9.0143 -0 -0 -0
353 1 38.5444 29.3587 7.1291 -0 0 -0
259 1 26.3804 17.2044 10.6262 -0 -0 -0
260 2 28.1396 15.3933 10.827 -0 -0 0
262 2 23.811 17.4795 11.8928 0 -0 0
201 1 23.2252 20.2543 11.8596 0 -0 0
274 2 24.7206 22.111 11.17 0 0 -0
261 1 30.9491 15.568 11.6885 -0 0 0
273 1 31.7352 20.1755 12.2648 -0 -0 0
331 1 35.2227 18.749 12.4751 -0 -0 -0
334 2 32.6141 17.3904 12.1914 0 0 0
346 2 33.9502 21.2805 12.5438 0 -0 0
272 2 29.5178 20.7422 10.6645 0 0 0
343 1 35.8079 23.4773 12.2875 0 -0 0
332 2 37.6505 18.4359 12.9652 0 0 -0
333 1 38.6547 15.9766 13.8366 0 0 0
344 2 37.8751 22.4483 11.3288 -0 0 -0
345 1 39.4855 20.6341 12.7839 0 0 -0
408 2 44.9191 17.3382 14.555 -0 -0 -0
418 2 41.9527 20.8851 13.0516 0 -0 -0
420 2 46.1662 21.7108 14.5317 0 0 0
419 1 44.2508 20.1388 14.5747 -0 -0 -0
407 1 43.5812 15.2634 14.1739 -0 -0 0
415 1 43.1557 22.3533 10.9209 -0 0 0
284 2 28.7811 29.4751 10.678 -0 -0 -0
286 2 23.9771 29.8463 11.9406 0 -0 -0
287 1 28.4678 25.3454 16.796 0 0 -0
288 2 29.4025 26.9678 15.2158 -0 -0 -0
285 1 30.1035 28.6636 13.1138 -0 -0 0
355 1 34.6246 28.1316 13.925 -0 0 0
358 2 32.3593 29.7378 13.2284 -0 0 0
427 1 41.4072 29.6079 11.4304 -0 0 0
360 2 36.48 27.8841 16.1443 0 -0 -0
356 2 36.0511 26.1861 13.2179 0 0 0
357 1 38.5562 27.406 14.2156 0 -0 0
430 2 40.9414 28.0815 13.8286 0 0 0
432 2 45.9827 29.3562 15.1947 -0 0 -0
431 1 43.5468 29.1686 14.5752 -0 0 -0
428 2 42.9507 31.1606 12.6345 -0 -0 -0
369 1 -2.38822 -2.36715 15.9445 0 -0 0
263 1 27.5207 15.395 18.7956 -0 0 -0
264 2 27.608 17.8438 18.7351 -0 0 0
275 1 27.5583 20.6056 18.6598 0 -0 0
276 2 28.0145 22.9382 18.0704 0 0 0
335 1 35.4179 15.4852 18.5166 -0 0 -0
347 1 35.5586 20.6688 18.1495 -0 -0 0
336 2 35.5693 17.9049 18.1998 0 0 -0
348 2 35.8637 23.0843 17.8878 0 0 -0
359 1 35.9222 25.7737 17.2911 -0 0 -0
ITEM: TIMESTEP
1000
ITEM: NUMBER OF ATOMS
432
ITEM: BOX BOUNDS pp pp pp
-2.0223399999999998e+00 4.7647511000000002e+01
-2.0223399999999998e+00 3.2115000999999999e+01
-2.0223399999999998e+00 2.3101209999999998e+01
ITEM: ATOMS id type xu yu zu vx vy vz
73 1 7.30029 0.427193 3.63562 0.000117806 -9.93605e-05 0.00134538
74 2 7.83402 2.82905 3.33165 -0.00337843 -0.000648505 0.00188709
85 1 7.19741 5.46734 3.8748 -0.00176068 -0.000423572 0.00137693
145 1 13.8259 1.50463 5.08187 -0.0016284 -7.08951e-05 0.000445854
157 1 15.4115 5.73051 2.58282 -0.000559989 -0.000593218 0.00118896
146 2 14.9609 3.35868 3.9378 -0.0012558 1.0457e-05 0.00125599
217 1 21.663 1.01053 4.14626 -0.000635299 -0.000790729 -0.000591469
86 2 7.38189 7.93206 4.15987 -0.00441663 -0.000600385 0.00132389
97 1 7.56759 10.6056 3.16094 0.000481636 -0.00026894 0.00216947
98 2 8.26316 12.5776 1.86819 0.00189262 -8.78953e-05 0.00441061
169 1 15.9624 10.5732 0.968618 -0.000520199 -0.000304824 0.00159032
158 2 15.9895 7.87064 1.53736 -0.000845528 -0.000223514 0.00201936
170 2 16.0789 13.0152 0.870192 -0.000429392 -0.000309677 0.00145967
2 2 0.682457 -0.71279 5.19287 0.000704975 0.00095955 0.000389139
3 1 3.266 -0.120173 6.2491 0.000353753 0.000454512 0.000874327
1 1 -1.73711 -0.843359 4.59468 0.000166951 2.0407e-05 0.00306461
377 1 -1.50423 6.12101 9.69608 -0.000968116 0.00114086 -0.00122239
18 2 -0.0200658 6.25142 7.71424 -5.42716e-05 -0.00060879 -0.000637706
13 1 -1.76259 6.72161 5.46027 0.000939992 -0.00106507 -0.000559415
4 2 5.46837 0.939098 5.73707 0.00101878 -0.000413617 0.00126021
5 1 8.08586 2.27849 6.18562 0.00114253 -0.000963485 0.00209014
17 1 5.73042 5.65779 8.14058 -0.000640746 -0.000614659 0.000877814
78 2 9.31179 0.124384 5.70003 0.00179126 -0.000111553 0.0011781
90 2 7.72817 5.20178 6.70745 -0.000389807 0.000553383 0.00133876
20 2 4.32408 6.05622 10.5508 -0.0016929 -0.00175712 0.00216881
75 1 11.1758 -1.88927 6.48875 0.000469154 -0.00143765 0.00103401
76 2 13.4604 -0.876758 6.48554 0.000174826 -0.000537083 0.000362557
77 1 15.1658 -1.88664 8.60448 0.000659897 -0.000582769 0.000184328
147 1 19.8247 -1.8919 7.71095 -0.000283047 0.000361586 -0.000276147
148 2 21.5287 -0.835112 6.20777 -0.000292313 -0.000135684 7.72143e-05
159 1 18.8208 6.49514 8.38468 -0.000690248 0.000108203 -2.48301e-05
150 2 17.5267 -1.61449 9.50889 0.000719257 -0.000297499 -0.000489603
152 2 21.8203 -1.05159 10.0102 -0.000268207 -0.000187677 -0.00106533
15 1 1.62552 8.35552 6.41255 0.000576587 -4.7971e-05 0.000792927
14 2 -0.375041 8.49728 4.42106 0.000971796 -0.00085525 0.000439339
25 1 -1.08994 11.1745 4.03761 0.000105535 -0.00134432 0.000272154
26 2 0.493527 12.9562 4.74319 -0.000205712 -0.000676065 -0.00116556
27 1 3.28778 13.235 4.48751 0.000180206 0.000214644 -0.000213762
30 2 1.06972 9.86334 8.83604 -0.000516774 -0.00111495 0.000394316
389 1 -0.762303 11.5589 9.14513 -4.47521e-05 -0.000605445 -0.00113261
19 1 2.22914 7.03616 9.55539 9.9563e-05 0.000296981 0.00106578
87 1 9.36124 7.85538 6.32206 -0.00217584 0.0020007 5.13882e-06
16 2 3.92533 7.61869 7.10629 0.000516366 0.000190143 0.00172028
28 2 5.20874 11.6546 4.47392 -0.00136345 -0.00203268 -0.000176694
29 1 5.88875 9.45438 6.1179 2.98285e-06 -0.000118371 -0.00124103
102 2 8.11254 10.5856 6.39448 0.000494214 0.00132833 -0.00528409
41 1 7.24273 13.5152 5.49571 0.000267177 -0.000534838 0.000994702
88 2 11.5771 8.81821 6.90317 -0.00107588 0.00132188 0.000974857
99 1 10.8581 11.6599 6.76775 -0.00040617 0.000740221 -0.000221316
100 2 12.9404 12.9345 7.37875 0.00081446 -2.32702e-05 -0.00275726
89 1 13.9091 8.38469 8.39791 -0.000436396 0.000629956 0.00113353
101 1 15.6627 12.8956 8.09968 0.00019178 0.00043422 -0.000332129
162 2 16.2001 7.47682 8.81671 -0.000624863 -0.000107063 -7.48588e-05
42 2 -0.159114 14.4195 9.15017 -0.00032155 -0.000844448 0.000222103
163 1 18.2078 9.34858 10.3927 -0.00041465 0.000113312 -0.000130795
160 2 20.8564 7.91593 8.1021 -2.05149e-05 -0.000361274 0.00014114
171 1 20.1353 10.6236 7.45297 -0.000366316 0.000196412 0.000229457
172 2 21.409 12.5741 6.60458 0.000162681 -1.15051e-05 0.000167955
174 2 17.4837 11.1901 8.27073 -0.000394889 -0.00021187 0.000241123
175 1 18.6587 13.1326 10.1303 -0.000674879 0.00044275 -0.000725338
176 2 20.4299 11.3194 10.3347 -0.000890206 0.000249342 4.54277e-05
218 2 22.3789 3.00578 2.94667 -0.000495113 -0.000204678 -0.000326035
114 2 9.57955 14.1856 6.02966 -0.000187724 0.00142155 0.000380252
183 1 20.0113 14.993 6.39917 0.000236648 0.000321139 0.000271135
10 2 -1.73519 -0.70762 15.5771 -0.00310238 0.00112954 -0.00113113
11 1 0.151257 1.1531 16.3649 -0.00276728 0.00132323 -0.00228221
46 2 -1.65398 15.0312 12.4876 -0.000373853 0.000245684 0.000368366
9 1 8.35225 -1.80073 12.2831 -0.000533911 -2.87745e-05 0.000676574
82 2 10.2458 -0.969193 13.6483 -0.000585163 0.000612314 -0.000776432
83 1 11.0321 1.09867 15.2967 0.00100097 -0.000567546 -0.000180698
179 1 20.1928 10.678 17.6335 -9.02096e-05 -0.000295352 -0.00153943
80 2 13.5641 -1.64119 11.0017 -0.000445357 0.000254724 -0.00038751
81 1 16.1476 -1.76084 12.1481 -0.000169614 -0.000619939 0.000350745
165 1 21.2718 7.15962 12.32 -0.000558866 -0.000109382 0.000294166
151 1 19.7638 -1.38875 11.3902 3.1526e-05 -0.00106721 -1.15646e-05
154 2 17.9288 -0.527496 13.3944 0.000119658 -0.000259448 -0.000432713
155 1 18.1143 1.23952 15.5031 0.000988799 -0.000207852 -0.000501041
156 2 18.6795 3.28855 16.6918 0.000535553 -5.1883e-05 -0.000415647
381 1 -1.96446 8.29702 12.6352 -0.00127265 -0.000219343 0.000790376
22 2 0.160894 7.39823 11.6456 -0.00122088 0.000612826 0.000253565
31 1 1.70457 9.84933 11.669 0.000376802 0.000277837 -0.000630529
34 2 -0.952594 10.9595 11.9951 9.64727e-06 0.000256368 -0.00134298
21 1 5.7222 7.53713 12.5856 0.000168588 0.00024034 5.04665e-05
32 2 4.12576 9.98824 12.3373 0.000300657 0.000638478 -0.00160161
33 1 6.69334 11.0415 11.5784 -0.000154196 0.00088565 -0.00224912
94 2 7.96692 8.57781 12.1116 -0.000216801 0.00151623 -0.00286588
106 2 7.62117 13.3148 11.8387 -0.000550638 0.000733416 -0.00178727
91 1 10.8154 8.97369 11.9204 0.000731467 0.000517076 0.00014948
93 1 15.7379 7.36893 11.7182 0.000266176 -9.61119e-05 0.000945604
92 2 13.0673 8.23111 11.1231 0.00018757 -0.00103918 0.000363414
103 1 10.4412 13.7386 12.0472 -0.000930995 0.000358506 -0.000704205
104 2 11.668 11.6227 12.4571 -0.000537684 0.000667175 -9.25214e-05
105 1 14.4656 11.4161 11.9564 -0.000376459 0.000522004 0.000197069
178 2 15.7683 13.346 10.9805 -0.000391246 0.000102778 -0.00055067
166 2 16.4866 9.56019 12.6348 -0.000403059 0.000223584 0.000686977
23 1 3.19412 5.28042 15.6997 -0.000373921 0.000426991 -0.00548612
12 2 1.75209 3.01491 16.3881 -0.000930423 -0.000187318 -0.00472623
84 2 11.6926 2.95872 16.7343 0.00131278 -0.000471414 -0.000623426
95 1 12.0684 5.41301 17.9264 0.000189415 -0.000538101 -0.000642294
167 1 19.1723 5.878 17.4076 -0.000122819 0.000355271 -0.00147848
36 2 3.83864 12.5418 15.9624 -0.00131519 0.00117967 0.00129385
35 1 4.25415 10.2318 15.221 -0.000310614 0.00180463 8.22867e-05
24 2 4.4711 7.36277 15.2426 0.00191791 0.000715507 -0.00380991
108 2 12.5635 12.9116 18.7201 0.000319179 0.000246183 0.000158263
107 1 12.5315 10.4902 18.4001 0.000145836 7.5641e-05 -0.000506797
96 2 12.6125 7.73965 18.4297 0.00132392 -0.00045935 -0.000906935
180 2 20.2262 13.0235 18.2751 -0.000186496 -0.00057971 -0.000790579
168 2 20.4058 7.9747 17.1531 -0.000385821 0.000152166 -0.00315124
164 2 18.7526 6.99957 11.1858 -0.000617459 0.000228293 0.000170836
43 1 1.10184 14.7176 11.7171 -0.00128612 -0.000766911 3.51812e-05
50 2 -0.168653 21.4799 5.64056 0.00113219 -0.000505458 0.00173193
51 1 2.77508 21.9066 5.7428 0.0019431 0.000901766 0.00201804
109 1 8.67221 15.1246 0.97046 2.74779e-05 5.24409e-05 0.00196286
110 2 8.81326 17.5447 0.549624 0.000256264 -3.32827e-05 0.000623347
121 1 8.59634 20.1882 1.25055 2.22776e-05 0.000482918 -0.000621816
122 2 7.80926 21.8334 2.90714 1.65364e-05 -0.00188316 0.000709485
181 1 15.7306 15.7207 1.23258 -6.11634e-05 -8.91454e-05 0.000416843
193 1 15.6361 20.7392 2.63773 0.00056174 0.000181122 -0.00011175
182 2 15.6334 18.0416 1.96606 -0.000131067 7.6997e-05 8.4218e-05
194 2 16.0893 23.1021 2.08774 0.000199247 0.000340615 0.000221976
61 1 0.0353019 24.1208 4.50476 0.00192629 -0.000631608 0.000316866
62 2 2.47285 24.2157 4.03554 0.00148109 -0.00208248 -0.00283609
133 1 7.10426 24.4295 3.56749 -0.00179423 -0.00152466 0.000700348
134 2 6.90815 26.4772 4.94088 -0.000580331 -0.00319255 0.00314241
205 1 15.1259 24.3494 4.36462 0.000512049 0.000464935 0.00040409
206 2 15.4157 26.4548 5.67043 -0.000433616 0.000173726 0.00122915
37 1 -0.143857 15.1969 6.34977 -0.000442443 5.27667e-05 0.00100781
38 2 0.911265 17.3582 5.7099 0.000605057 -0.00120543 -0.00124511
39 1 3.72953 17.5123 5.56467 0.000258235 -6.7351e-05 0.000652324
49 1 -1.21767 19.206 5.6199 0.00163133 -0.000804059 0.000993382
129 1 13.9903 23.8491 10.0334 0.00115215 0.00124873 -0.0012583
40 2 4.94982 15.3664 5.32683 0.000941425 7.00065e-05 0.00140319
52 2 4.61531 20.2092 5.72168 0.000573275 -0.000584545 -8.24611e-05
53 1 7.41363 20.3156 5.3092 0.000185821 0.000594507 -0.000311141
211 1 17.8085 29.5911 9.97139 8.37569e-05 -0.000934616 0.00030142
126 2 9.61574 20.3335 6.44969 3.35972e-05 -0.000375165 0.000645432
127 1 10.3956 21.1249 9.04022 0.000698541 5.58577e-05 4.79704e-05
111 1 11.9073 15.5577 6.74893 -0.000826259 0.000671199 0.000721325
112 2 13.4005 17.559 6.89374 0.000170453 -0.000169846 4.02398e-05
123 1 12.4663 20.1865 6.03258 0.00052976 -0.000400164 0.000187752
124 2 14.2928 21.6323 5.07916 0.000415329 6.91578e-05 -5.22225e-05
128 2 12.7435 21.7758 8.52789 0.000391522 0.000788425 -0.000914975
113 1 16.1563 17.2626 7.63618 -0.000259617 -5.03705e-06 -0.000646739
125 1 15.5286 21.2712 7.65235 0.000221048 -0.000558518 -0.000152799
202 2 16.1358 22.5922 10.1123 0.00030392 -9.48486e-05 -0.00103004
6 2 2.78934 -2.52225 7.73411 -0.00136535 -0.0026596 -0.000907447
184 2 21.0064 17.1252 7.18768 0.000840128 0.000244725 -0.000237883
195 1 20.4584 19.9499 7.13732 0.00102092 0.000317103 -0.000744373
196 2 22.621 20.8237 6.22414 0.00107748 -0.0012986 -0.0026496
188 2 20.8951 15.0921 10.1463 9.68106e-05 0.000275823 4.15154e-05
186 2 17.5463 15.1677 7.86082 0.000220838 0.000356084 0.000544009
198 2 17.5469 19.7793 7.56989 0.000454043 -0.000341134 -0.000373354
187 1 19.3218 16.9814 9.55613 0.000212579 0.000288318 -0.000201505
200 2 20.2891 19.7008 10.1607 0.000153644 -4.33747e-05 -0.000882488
199 1 17.8582 20.3139 10.4278 0.000354509 0.000551586 -8.77906e-05
63 1 3.98629 26.2748 5.35265 -0.00130934 -0.00195876 0.000219916
54 2 -1.13456 24.6428 7.05609 0.000552014 -0.000344926 6.31656e-05
66 2 1.83739 27.9707 6.12739 -0.00096381 -0.00151344 0.00179007
425 1 1.14291 26.1734 7.68316 -0.000570092 -0.00046262 0.00308534
365 1 1.04603 -3.42467 6.15266 -0.00235001 -0.00067865 -0.000768361
64 2 3.75084 24.9171 7.46363 -0.00252808 -0.0043724 -0.00140775
135 1 8.8471 27.9915 6.46727 -0.00118201 -0.000761307 0.00177957
65 1 5.80223 26.0535 9.07521 -0.00324346 -0.00193027 -5.14241e-05
138 2 8.12283 26.9863 9.08145 -0.00269675 -0.0015168 0.00172111
136 2 10.9645 29.299 6.79893 -0.000894938 -0.00143514 0.00292094
137 1 13.683 28.2247 7.16649 0.000271639 -0.00228531 0.0040075
210 2 15.6807 29.5039 7.93384 0.000393423 -0.00148718 0.00218073
207 1 17.6213 28.1568 6.33702 -0.00105455 0.000158782 0.00051866
208 2 19.4775 29.3551 7.52553 -0.00147172 2.45399e-05 0.00138525
209 1 21.9821 29.4086 9.08458 -0.000538643 0.000679002 0.000705294
139 1 10.628 27.5761 10.2933 -0.000179208 -0.000206037 -0.00128819
7 1 4.22114 -3.50867 9.91057 -0.000497309 -8.34828e-05 -0.000138858
71 1 6.11682 25.0007 15.7348 0.0008215 -0.00153215 -0.00377309
143 1 13.1927 25.4136 16.9582 -0.00087604 0.000344328 -0.000470105
55 1 2.51039 18.4876 13.6451 -0.00109731 -0.000461513 -0.000351774
58 2 -0.344494 19.0126 13.3935 -0.000745509 0.000698762 -0.00169952
215 1 21.3354 25.3593 16.0411 0.000451499 0.00107292 0.000674859
417 1 -1.5295 21.118 12.8624 -0.002011 3.66217e-06 -0.00113281
44 2 3.06354 15.6535 12.9787 -0.000471002 0.00039109 -0.00301277
45 1 5.96834 15.4471 12.6634 -0.000852057 -0.00012653 -0.000951199
56 2 4.23833 20.2798 13.4602 -0.000707682 -0.00101253 -0.00209953
57 1 6.86207 20.0414 12.4857 0.000193288 -0.000538814 -0.000447521
118 2 7.53639 17.3387 13.0051 -0.000110257 -0.000770492 -0.00142338
130 2 9.07503 20.4188 11.3978 0.000902344 0.000111988 0.000850409
115 1 10.1991 17.924 12.2523 -0.000347825 -0.00056485 -0.000469438
116 2 11.9582 16.1954 11.8835 -0.000429134 -0.000712991 -0.000370389
117 1 14.8028 16.0611 11.3098 9.19477e-05 0.000211905 -0.000504477
190 2 16.6232 17.6177 10.543 0.000338478 0.000262747 -0.000191455
189 1 22.4095 15.6264 12.5015 9.30098e-05 -5.20708e-05 -0.000113112
67 1 3.45871 27.5143 13.1128 0.000242678 -0.000346841 -0.00237091
70 2 0.734033 27.3547 13.8215 -0.000397102 -0.00120858 -0.00173575
429 1 -1.62989 27.8767 14.1626 -0.000592175 -0.000618486 -0.000210411
72 2 6.01831 26.9782 14.2652 -0.000485052 -0.000763198 -0.00301391
68 2 4.6077 27.9108 10.9254 0.000863642 -0.00283221 -0.00241321
69 1 7.18808 28.6392 12.1476 -0.00053565 0.000934492 -0.00531008
142 2 9.51289 29.6525 11.9241 0.000561802 0.000390284 -0.000242563
79 1 11.9412 -2.90864 12.3826 -0.00129798 0.000730928 -0.00069311
144 2 13.5888 26.6857 14.9086 -0.00154341 -0.00205491 -0.00224039
405 1 -2.05529 16.8667 14.1045 0.000491987 0.000870641 -0.000255265
140 2 12.8659 26.4675 10.2809 0.000492426 0.000874026 -0.0025972
141 1 14.5495 27.4808 12.4252 -0.000820474 0.000973024 -0.000993758
214 2 15.7856 29.5784 12.0133 0.000489711 0.000432289 0.00101299