ITEM: TIMESTEP
0
ITEM: NUMBER OF ATOMS
432
ITEM: BOX BOUNDS pp pp pp
-2.0223399999999998e+00 4.7647511000000002e+01
-2.0223399999999998e+00 3.2115000999999999e+01
-2.0223399999999998e+00 2.3101209999999998e+01
ITEM: ATOMS id type xu yu zu vx vy vz
1 1 0 0 0 0 0 0
2 2 1.90565 1.3475 0 0 0 0
3 1 3.81131 0 3.81131 0 0 0
13 1 0 5.39 0 0 0 0
15 1 3.81131 5.39 3.81131 0 0 0
4 2 5.71696 1.3475 3.81131 0 0 0
73 1 7.62261 0 0 0 0 0
74 2 9.52826 1.3475 0 0 0 0
85 1 7.62261 5.39 0 0 0 0
75 1 11.4339 0 3.81131 0 0 0
76 2 13.3396 1.3475 3.81131 0 0 0
87 1 11.4339 5.39 3.81131 0 0 0
145 1 15.2452 0 0 0 0 0
157 1 15.2452 5.39 0 0 0 0
146 2 17.1509 1.3475 0 0 0 0
147 1 19.0565 0 3.81131 0 0 0
148 2 20.9622 1.3475 3.81131 0 0 0
159 1 19.0565 5.39 3.81131 0 0 0
14 2 1.90565 6.7375 0 0 0 0
25 1 0 10.78 0 0 0 0
26 2 1.90565 12.1275 0 0 0 0
27 1 3.81131 10.78 3.81131 0 0 0
16 2 5.71696 6.7375 3.81131 0 0 0
28 2 5.71696 12.1275 3.81131 0 0 0
86 2 9.52826 6.7375 0 0 0 0
97 1 7.62261 10.78 0 0 0 0
98 2 9.52826 12.1275 0 0 0 0
88 2 13.3396 6.7375 3.81131 0 0 0
99 1 11.4339 10.78 3.81131 0 0 0
100 2 13.3396 12.1275 3.81131 0 0 0
169 1 15.2452 10.78 0 0 0 0
158 2 17.1509 6.7375 0 0 0 0
160 2 20.9622 6.7375 3.81131 0 0 0
170 2 17.1509 12.1275 0 0 0 0
171 1 19.0565 10.78 3.81131 0 0 0
172 2 20.9622 12.1275 3.81131 0 0 0
6 2 1.90565 1.3475 7.62261 0 0 0
365 1 0 0 7.62261 0 0 0
377 1 0 5.39 7.62261 0 0 0
5 1 7.62261 0 7.62261 0 0 0
17 1 7.62261 5.39 7.62261 0 0 0
78 2 9.52826 1.3475 7.62261 0 0 0
77 1 15.2452 0 7.62261 0 0 0
89 1 15.2452 5.39 7.62261 0 0 0
150 2 17.1509 1.3475 7.62261 0 0 0
18 2 1.90565 6.7375 7.62261 0 0 0
30 2 1.90565 12.1275 7.62261 0 0 0
389 1 0 10.78 7.62261 0 0 0
29 1 7.62261 10.78 7.62261 0 0 0
90 2 9.52826 6.7375 7.62261 0 0 0
102 2 9.52826 12.1275 7.62261 0 0 0
101 1 15.2452 10.78 7.62261 0 0 0
162 2 17.1509 6.7375 7.62261 0 0 0
174 2 17.1509 12.1275 7.62261 0 0 0
7 1 3.81131 0 11.4339 0 0 0
10 2 1.90565 1.3475 15.2452 0 0 0
19 1 3.81131 5.39 11.4339 0 0 0
369 1 0 0 15.2452 0 0 0
381 1 0 5.39 15.2452 0 0 0
8 2 5.71696 1.3475 11.4339 0 0 0
9 1 7.62261 0 15.2452 0 0 0
21 1 7.62261 5.39 15.2452 0 0 0
82 2 9.52826 1.3475 15.2452 0 0 0
79 1 11.4339 0 11.4339 0 0 0
80 2 13.3396 1.3475 11.4339 0 0 0
81 1 15.2452 0 15.2452 0 0 0
91 1 11.4339 5.39 11.4339 0 0 0
93 1 15.2452 5.39 15.2452 0 0 0
151 1 19.0565 0 11.4339 0 0 0
152 2 20.9622 1.3475 11.4339 0 0 0
154 2 17.1509 1.3475 15.2452 0 0 0
163 1 19.0565 5.39 11.4339 0 0 0
22 2 1.90565 6.7375 15.2452 0 0 0
31 1 3.81131 10.78 11.4339 0 0 0
34 2 1.90565 12.1275 15.2452 0 0 0
393 1 0 10.78 15.2452 0 0 0
20 2 5.71696 6.7375 11.4339 0 0 0
32 2 5.71696 12.1275 11.4339 0 0 0
33 1 7.62261 10.78 15.2452 0 0 0
94 2 9.52826 6.7375 15.2452 0 0 0
106 2 9.52826 12.1275 15.2452 0 0 0
92 2 13.3396 6.7375 11.4339 0 0 0
103 1 11.4339 10.78 11.4339 0 0 0
104 2 13.3396 12.1275 11.4339 0 0 0
105 1 15.2452 10.78 15.2452 0 0 0
164 2 20.9622 6.7375 11.4339 0 0 0
166 2 17.1509 6.7375 15.2452 0 0 0
175 1 19.0565 10.78 11.4339 0 0 0
176 2 20.9622 12.1275 11.4339 0 0 0
178 2 17.1509 12.1275 15.2452 0 0 0
11 1 3.81131 0 19.0565 0 0 0
23 1 3.81131 5.39 19.0565 0 0 0
12 2 5.71696 1.3475 19.0565 0 0 0
83 1 11.4339 0 19.0565 0 0 0
84 2 13.3396 1.3475 19.0565 0 0 0
95 1 11.4339 5.39 19.0565 0 0 0
155 1 19.0565 0 19.0565 0 0 0
156 2 20.9622 1.3475 19.0565 0 0 0
167 1 19.0565 5.39 19.0565 0 0 0
35 1 3.81131 10.78 19.0565 0 0 0
24 2 5.71696 6.7375 19.0565 0 0 0
36 2 5.71696 12.1275 19.0565 0 0 0
96 2 13.3396 6.7375 19.0565 0 0 0
107 1 11.4339 10.78 19.0565 0 0 0
108 2 13.3396 12.1275 19.0565 0 0 0
168 2 20.9622 6.7375 19.0565 0 0 0
179 1 19.0565 10.78 19.0565 0 0 0
180 2 20.9622 12.1275 19.0565 0 0 0
37 1 0 16.17 0 0 0 0
38 2 1.90565 17.5175 0 0 0 0
39 1 3.81131 16.17 3.81131 0 0 0
49 1 0 21.56 0 0 0 0
50 2 1.90565 22.9075 0 0 0 0
51 1 3.81131 21.56 3.81131 0 0 0
40 2 5.71696 17.5175 3.81131 0 0 0
52 2 5.71696 22.9075 3.81131 0 0 0
109 1 7.62261 16.17 0 0 0 0
110 2 9.52826 17.5175 0 0 0 0
121 1 7.62261 21.56 0 0 0 0
122 2 9.52826 22.9075 0 0 0 0
111 1 11.4339 16.17 3.81131 0 0 0
112 2 13.3396 17.5175 3.81131 0 0 0
123 1 11.4339 21.56 3.81131 0 0 0
124 2 13.3396 22.9075 3.81131 0 0 0
181 1 15.2452 16.17 0 0 0 0
193 1 15.2452 21.56 0 0 0 0
182 2 17.1509 17.5175 0 0 0 0
183 1 19.0565 16.17 3.81131 0 0 0
184 2 20.9622 17.5175 3.81131 0 0 0
194 2 17.1509 22.9075 0 0 0 0
195 1 19.0565 21.56 3.81131 0 0 0
196 2 20.9622 22.9075 3.81131 0 0 0
61 1 0 26.95 0 0 0 0
62 2 1.90565 28.2975 0 0 0 0
63 1 3.81131 26.95 3.81131 0 0 0
64 2 5.71696 28.2975 3.81131 0 0 0
133 1 7.62261 26.95 0 0 0 0
134 2 9.52826 28.2975 0 0 0 0
135 1 11.4339 26.95 3.81131 0 0 0
136 2 13.3396 28.2975 3.81131 0 0 0
205 1 15.2452 26.95 0 0 0 0
206 2 17.1509 28.2975 0 0 0 0
207 1 19.0565 26.95 3.81131 0 0 0
208 2 20.9622 28.2975 3.81131 0 0 0
42 2 1.90565 17.5175 7.62261 0 0 0
54 2 1.90565 22.9075 7.62261 0 0 0
401 1 0 16.17 7.62261 0 0 0
413 1 0 21.56 7.62261 0 0 0
41 1 7.62261 16.17 7.62261 0 0 0
53 1 7.62261 21.56 7.62261 0 0 0
114 2 9.52826 17.5175 7.62261 0 0 0
126 2 9.52826 22.9075 7.62261 0 0 0
113 1 15.2452 16.17 7.62261 0 0 0
125 1 15.2452 21.56 7.62261 0 0 0
186 2 17.1509 17.5175 7.62261 0 0 0
198 2 17.1509 22.9075 7.62261 0 0 0
66 2 1.90565 28.2975 7.62261 0 0 0
425 1 0 26.95 7.62261 0 0 0
65 1 7.62261 26.95 7.62261 0 0 0
138 2 9.52826 28.2975 7.62261 0 0 0
137 1 15.2452 26.95 7.62261 0 0 0
210 2 17.1509 28.2975 7.62261 0 0 0
43 1 3.81131 16.17 11.4339 0 0 0
46 2 1.90565 17.5175 15.2452 0 0 0
55 1 3.81131 21.56 11.4339 0 0 0
58 2 1.90565 22.9075 15.2452 0 0 0
405 1 0 16.17 15.2452 0 0 0
417 1 0 21.56 15.2452 0 0 0
44 2 5.71696 17.5175 11.4339 0 0 0
45 1 7.62261 16.17 15.2452 0 0 0
56 2 5.71696 22.9075 11.4339 0 0 0
57 1 7.62261 21.56 15.2452 0 0 0
118 2 9.52826 17.5175 15.2452 0 0 0
130 2 9.52826 22.9075 15.2452 0 0 0
115 1 11.4339 16.17 11.4339 0 0 0
116 2 13.3396 17.5175 11.4339 0 0 0
117 1 15.2452 16.17 15.2452 0 0 0
127 1 11.4339 21.56 11.4339 0 0 0
128 2 13.3396 22.9075 11.4339 0 0 0
129 1 15.2452 21.56 15.2452 0 0 0
187 1 19.0565 16.17 11.4339 0 0 0
188 2 20.9622 17.5175 11.4339 0 0 0
190 2 17.1509 17.5175 15.2452 0 0 0
199 1 19.0565 21.56 11.4339 0 0 0
200 2 20.9622 22.9075 11.4339 0 0 0
202 2 17.1509 22.9075 15.2452 0 0 0
67 1 3.81131 26.95 11.4339 0 0 0
70 2 1.90565 28.2975 15.2452 0 0 0
429 1 0 26.95 15.2452 0 0 0
68 2 5.71696 28.2975 11.4339 0 0 0
69 1 7.62261 26.95 15.2452 0 0 0
142 2 9.52826 28.2975 15.2452 0 0 0
139 1 11.4339 26.95 11.4339 0 0 0
140 2 13.3396 28.2975 11.4339 0 0 0
141 1 15.2452 26.95 15.2452 0 0 0
211 1 19.0565 26.95 11.4339 0 0 0
212 2 20.9622 28.2975 11.4339 0 0 0
214 2 17.1509 28.2975 15.2452 0 0 0
47 1 3.81131 16.17 19.0565 0 0 0
59 1 3.81131 21.56 19.0565 0 0 0
48 2 5.71696 17.5175 19.0565 0 0 0
60 2 5.71696 22.9075 19.0565 0 0 0
119 1 11.4339 16.17 19.0565 0 0 0
120 2 13.3396 17.5175 19.0565 0 0 0
131 1 11.4339 21.56 19.0565 0 0 0
132 2 13.3396 22.9075 19.0565 0 0 0
191 1 19.0565 16.17 19.0565 0 0 0
192 2 20.9622 17.5175 19.0565 0 0 0
203 1 19.0565 21.56 19.0565 0 0 0
204 2 20.9622 22.9075 19.0565 0 0 0
71 1 3.81131 26.95 19.0565 0 0 0
72 2 5.71696 28.2975 19.0565 0 0 0
143 1 11.4339 26.95 19.0565 0 0 0
144 2 13.3396 28.2975 19.0565 0 0 0
215 1 19.0565 26.95 19.0565 0 0 0
216 2 20.9622 28.2975 19.0565 0 0 0
217 1 22.8678 0 0 0 0 0
218 2 24.7735 1.3475 0 0 0 0
219 1 26.6791 0 3.81131 0 0 0
220 2 28.5848 1.3475 3.81131 0 0 0
229 1 22.8678 5.39 0 0 0 0
231 1 26.6791 5.39 3.81131 0 0 0
289 1 30.4904 0 0 0 0 0
290 2 32.3961 1.3475 0 0 0 0
291 1 34.3017 0 3.81131 0 0 0
301 1 30.4904 5.39 0 0 0 0
303 1 34.3017 5.39 3.81131 0 0 0
292 2 36.2074 1.3475 3.81131 0 0 0
361 1 38.1131 0 0 0 0 0
362 2 40.0187 1.3475 0 0 0 0
373 1 38.1131 5.39 0 0 0 0
363 1 41.9244 0 3.81131 0 0 0
364 2 43.83 1.3475 3.81131 0 0 0
375 1 41.9244 5.39 3.81131 0 0 0
230 2 24.7735 6.7375 0 0 0 0
232 2 28.5848 6.7375 3.81131 0 0 0
241 1 22.8678 10.78 0 0 0 0
242 2 24.7735 12.1275 0 0 0 0
243 1 26.6791 10.78 3.81131 0 0 0
244 2 28.5848 12.1275 3.81131 0 0 0
302 2 32.3961 6.7375 0 0 0 0
313 1 30.4904 10.78 0 0 0 0
314 2 32.3961 12.1275 0 0 0 0
315 1 34.3017 10.78 3.81131 0 0 0
304 2 36.2074 6.7375 3.81131 0 0 0
316 2 36.2074 12.1275 3.81131 0 0 0
374 2 40.0187 6.7375 0 0 0 0
385 1 38.1131 10.78 0 0 0 0
386 2 40.0187 12.1275 0 0 0 0
376 2 43.83 6.7375 3.81131 0 0 0
387 1 41.9244 10.78 3.81131 0 0 0
388 2 43.83 12.1275 3.81131 0 0 0
149 1 22.8678 0 7.62261 0 0 0
161 1 22.8678 5.39 7.62261 0 0 0
222 2 24.7735 1.3475 7.62261 0 0 0
221 1 30.4904 0 7.62261 0 0 0
233 1 30.4904 5.39 7.62261 0 0 0
294 2 32.3961 1.3475 7.62261 0 0 0
293 1 38.1131 0 7.62261 0 0 0
305 1 38.1131 5.39 7.62261 0 0 0
366 2 40.0187 1.3475 7.62261 0 0 0
173 1 22.8678 10.78 7.62261 0 0 0
234 2 24.7735 6.7375 7.62261 0 0 0
246 2 24.7735 12.1275 7.62261 0 0 0
245 1 30.4904 10.78 7.62261 0 0 0
306 2 32.3961 6.7375 7.62261 0 0 0
318 2 32.3961 12.1275 7.62261 0 0 0
317 1 38.1131 10.78 7.62261 0 0 0
378 2 40.0187 6.7375 7.62261 0 0 0
390 2 40.0187 12.1275 7.62261 0 0 0
153 1 22.8678 0 15.2452 0 0 0
165 1 22.8678 5.39 15.2452 0 0 0
223 1 26.6791 0 11.4339 0 0 0
224 2 28.5848 1.3475 11.4339 0 0 0
226 2 24.7735 1.3475 15.2452 0 0 0
235 1 26.6791 5.39 11.4339 0 0 0
225 1 30.4904 0 15.2452 0 0 0
237 1 30.4904 5.39 15.2452 0 0 0
295 1 34.3017 0 11.4339 0 0 0
298 2 32.3961 1.3475 15.2452 0 0 0
307 1 34.3017 5.39 11.4339 0 0 0
296 2 36.2074 1.3475 11.4339 0 0 0
297 1 38.1131 0 15.2452 0 0 0
309 1 38.1131 5.39 15.2452 0 0 0
370 2 40.0187 1.3475 15.2452 0 0 0
367 1 41.9244 0 11.4339 0 0 0
368 2 43.83 1.3475 11.4339 0 0 0
379 1 41.9244 5.39 11.4339 0 0 0
177 1 22.8678 10.78 15.2452 0 0 0
236 2 28.5848 6.7375 11.4339 0 0 0
238 2 24.7735 6.7375 15.2452 0 0 0
247 1 26.6791 10.78 11.4339 0 0 0
248 2 28.5848 12.1275 11.4339 0 0 0
250 2 24.7735 12.1275 15.2452 0 0 0
249 1 30.4904 10.78 15.2452 0 0 0
310 2 32.3961 6.7375 15.2452 0 0 0
319 1 34.3017 10.78 11.4339 0 0 0
322 2 32.3961 12.1275 15.2452 0 0 0
308 2 36.2074 6.7375 11.4339 0 0 0
320 2 36.2074 12.1275 11.4339 0 0 0
321 1 38.1131 10.78 15.2452 0 0 0
382 2 40.0187 6.7375 15.2452 0 0 0
394 2 40.0187 12.1275 15.2452 0 0 0
380 2 43.83 6.7375 11.4339 0 0 0
391 1 41.9244 10.78 11.4339 0 0 0
392 2 43.83 12.1275 11.4339 0 0 0
227 1 26.6791 0 19.0565 0 0 0
228 2 28.5848 1.3475 19.0565 0 0 0
239 1 26.6791 5.39 19.0565 0 0 0
299 1 34.3017 0 19.0565 0 0 0
311 1 34.3017 5.39 19.0565 0 0 0
300 2 36.2074 1.3475 19.0565 0 0 0
371 1 41.9244 0 19.0565 0 0 0
372 2 43.83 1.3475 19.0565 0 0 0
383 1 41.9244 5.39 19.0565 0 0 0
240 2 28.5848 6.7375 19.0565 0 0 0
251 1 26.6791 10.78 19.0565 0 0 0
252 2 28.5848 12.1275 19.0565 0 0 0
323 1 34.3017 10.78 19.0565 0 0 0
312 2 36.2074 6.7375 19.0565 0 0 0
324 2 36.2074 12.1275 19.0565 0 0 0
384 2 43.83 6.7375 19.0565 0 0 0
395 1 41.9244 10.78 19.0565 0 0 0
396 2 43.83 12.1275 19.0565 0 0 0
253 1 22.8678 16.17 0 0 0 0
254 2 24.7735 17.5175 0 0 0 0
255 1 26.6791 16.17 3.81131 0 0 0
256 2 28.5848 17.5175 3.81131 0 0 0
265 1 22.8678 21.56 0 0 0 0
266 2 24.7735 22.9075 0 0 0 0
267 1 26.6791 21.56 3.81131 0 0 0
268 2 28.5848 22.9075 3.81131 0 0 0
325 1 30.4904 16.17 0 0 0 0
326 2 32.3961 17.5175 0 0 0 0
327 1 34.3017 16.17 3.81131 0 0 0
337 1 30.4904 21.56 0 0 0 0
338 2 32.3961 22.9075 0 0 0 0
339 1 34.3017 21.56 3.81131 0 0 0
328 2 36.2074 17.5175 3.81131 0 0 0
340 2 36.2074 22.9075 3.81131 0 0 0
397 1 38.1131 16.17 0 0 0 0
398 2 40.0187 17.5175 0 0 0 0
409 1 38.1131 21.56 0 0 0 0
410 2 40.0187 22.9075 0 0 0 0
399 1 41.9244 16.17 3.81131 0 0 0
400 2 43.83 17.5175 3.81131 0 0 0
411 1 41.9244 21.56 3.81131 0 0 0
412 2 43.83 22.9075 3.81131 0 0 0
277 1 22.8678 26.95 0 0 0 0
278 2 24.7735 28.2975 0 0 0 0
279 1 26.6791 26.95 3.81131 0 0 0
280 2 28.5848 28.2975 3.81131 0 0 0
349 1 30.4904 26.95 0 0 0 0
350 2 32.3961 28.2975 0 0 0 0
351 1 34.3017 26.95 3.81131 0 0 0
352 2 36.2074 28.2975 3.81131 0 0 0
421 1 38.1131 26.95 0 0 0 0
422 2 40.0187 28.2975 0 0 0 0
423 1 41.9244 26.95 3.81131 0 0 0
424 2 43.83 28.2975 3.81131 0 0 0
185 1 22.8678 16.17 7.62261 0 0 0
197 1 22.8678 21.56 7.62261 0 0 0
258 2 24.7735 17.5175 7.62261 0 0 0
270 2 24.7735 22.9075 7.62261 0 0 0
257 1 30.4904 16.17 7.62261 0 0 0
269 1 30.4904 21.56 7.62261 0 0 0
330 2 32.3961 17.5175 7.62261 0 0 0
342 2 32.3961 22.9075 7.62261 0 0 0
329 1 38.1131 16.17 7.62261 0 0 0
341 1 38.1131 21.56 7.62261 0 0 0
402 2 40.0187 17.5175 7.62261 0 0 0
414 2 40.0187 22.9075 7.62261 0 0 0
209 1 22.8678 26.95 7.62261 0 0 0
282 2 24.7735 28.2975 7.62261 0 0 0
281 1 30.4904 26.95 7.62261 0 0 0
354 2 32.3961 28.2975 7.62261 0 0 0
353 1 38.1131 26.95 7.62261 0 0 0
426 2 40.0187 28.2975 7.62261 0 0 0
189 1 22.8678 16.17 15.2452 0 0 0
201 1 22.8678 21.56 15.2452 0 0 0
259 1 26.6791 16.17 11.4339 0 0 0
260 2 28.5848 17.5175 11.4339 0 0 0
262 2 24.7735 17.5175 15.2452 0 0 0
271 1 26.6791 21.56 11.4339 0 0 0
272 2 28.5848 22.9075 11.4339 0 0 0
274 2 24.7735 22.9075 15.2452 0 0 0
261 1 30.4904 16.17 15.2452 0 0 0
273 1 30.4904 21.56 15.2452 0 0 0
331 1 34.3017 16.17 11.4339 0 0 0
334 2 32.3961 17.5175 15.2452 0 0 0
343 1 34.3017 21.56 11.4339 0 0 0
346 2 32.3961 22.9075 15.2452 0 0 0
332 2 36.2074 17.5175 11.4339 0 0 0
333 1 38.1131 16.17 15.2452 0 0 0
344 2 36.2074 22.9075 11.4339 0 0 0
345 1 38.1131 21.56 15.2452 0 0 0
406 2 40.0187 17.5175 15.2452 0 0 0
418 2 40.0187 22.9075 15.2452 0 0 0
403 1 41.9244 16.17 11.4339 0 0 0
404 2 43.83 17.5175 11.4339 0 0 0
415 1 41.9244 21.56 11.4339 0 0 0
416 2 43.83 22.9075 11.4339 0 0 0
213 1 22.8678 26.95 15.2452 0 0 0
283 1 26.6791 26.95 11.4339 0 0 0
284 2 28.5848 28.2975 11.4339 0 0 0
286 2 24.7735 28.2975 15.2452 0 0 0
285 1 30.4904 26.95 15.2452 0 0 0
355 1 34.3017 26.95 11.4339 0 0 0
358 2 32.3961 28.2975 15.2452 0 0 0
356 2 36.2074 28.2975 11.4339 0 0 0
357 1 38.1131 26.95 15.2452 0 0 0
430 2 40.0187 28.2975 15.2452 0 0 0
427 1 41.9244 26.95 11.4339 0 0 0
428 2 43.83 28.2975 11.4339 0 0 0
263 1 26.6791 16.17 19.0565 0 0 0
264 2 28.5848 17.5175 19.0565 0 0 0
275 1 26.6791 21.56 19.0565 0 0 0
276 2 28.5848 22.9075 19.0565 0 0 0
335 1 34.3017 16.17 19.0565 0 0 0
347 1 34.3017 21.56 19.0565 0 0 0
336 2 36.2074 17.5175 19.0565 0 0 0
348 2 36.2074 22.9075 19.0565 0 0 0
407 1 41.9244 16.17 19.0565 0 0 0
408 2 43.83 17.5175 19.0565 0 0 0
419 1 41.9244 21.56 19.0565 0 0 0
420 2 43.83 22.9075 19.0565 0 0 0
287 1 26.6791 26.95 19.0565 0 0 0
288 2 28.5848 28.2975 19.0565 0 0 0
359 1 34.3017 26.95 19.0565 0 0 0
360 2 36.2074 28.2975 19.0565 0 0 0
431 1 41.9244 26.95 19.0565 0 0 0
432 2 43.83 28.2975 19.0565 0 0 0
ITEM: TIMESTEP
25
ITEM: NUMBER OF ATOMS
432
ITEM: BOX BOUNDS pp pp pp
-2.0223399999999998e+00 4.7647511000000002e+01
-2.0223399999999998e+00 3.2115000999999999e+01
-2.0223399999999998e+00 2.3101209999999998e+01
ITEM: ATOMS id type xu yu zu vx vy vz
1 1 -0.408482 -0.356662 0.0734743 0 0 0
2 2 1.40211 1.10993 0.857391 0 0 0
3 1 3.44571 0.160416 3.40262 0 0 0
13 1 -0.229017 5.09607 0.104843 0 0 0
15 1 3.63332 5.60328 3.3754 0 0 0
4 2 5.68269 1.04723 3.97991 0 0 0
73 1 7.83861 -0.284723 0.342351 0 0 0
74 2 8.78342 2.01556 0.352661 0 0 0
85 1 8.27362 4.87003 0.356237 0 0 0
75 1 11.2216 -0.0810722 4.00424 0 0 0
76 2 13.2678 1.24774 3.91637 0 0 0
87 1 11.3814 5.35463 3.987 0 0 0
145 1 15.5401 -0.318532 0.300796 0 0 0
157 1 15.9309 4.87106 0.347287 0 0 0
146 2 16.3952 2.00946 0.331001 0 0 0
147 1 18.868 -0.10458 4.03387 0 0 0
148 2 20.8798 1.25883 3.91217 0 0 0
159 1 19.0128 5.35353 4.02022 0 0 0
14 2 1.5409 6.61051 0.888016 0 0 0
25 1 -0.231634 10.5244 0.0933008 0 0 0
26 2 1.53018 12.0508 0.88164 0 0 0
27 1 3.66896 10.9666 3.3704 0 0 0
16 2 5.80807 6.53271 4.11615 0 0 0
28 2 5.79346 11.9743 4.13095 0 0 0
86 2 8.82268 7.32083 0.349615 0 0 0
97 1 8.30066 10.2284 0.328524 0 0 0
98 2 8.8149 12.678 0.347859 0 0 0
88 2 13.3753 6.73336 4.0067 0 0 0
99 1 11.3985 10.7529 3.9794 0 0 0
100 2 13.3724 12.1364 4.02253 0 0 0
169 1 15.9501 10.2326 0.332268 0 0 0
158 2 16.4438 7.31292 0.336726 0 0 0
160 2 21.0024 6.72911 4.00169 0 0 0
170 2 16.4407 12.6728 0.339154 0 0 0
171 1 19.015 10.7687 4.01342 0 0 0
172 2 21.0069 12.1299 4.01915 0 0 0
6 2 1.35629 0.908485 7.81379 0 0 0
365 1 -0.779599 -0.255139 7.60667 0 0 0
377 1 -0.720714 5.35027 7.6148 0 0 0
5 1 7.33942 -0.00213892 7.41321 0 0 0
17 1 7.47183 5.4583 7.3832 0 0 0
78 2 9.4794 1.20978 7.61864 0 0 0
77 1 15.0314 -0.0654882 7.60334 0 0 0
89 1 15.1613 5.4035 7.58901 0 0 0
150 2 17.0952 1.24877 7.58407 0 0 0
18 2 1.50045 6.35272 7.79755 0 0 0
30 2 1.49201 11.7599 7.79001 0 0 0
389 1 -0.759465 10.8202 7.61456 0 0 0
29 1 7.48802 10.8482 7.37887 0 0 0
90 2 9.60481 6.65858 7.63945 0 0 0
102 2 9.59631 12.0602 7.64313 0 0 0
101 1 15.1602 10.8219 7.58095 0 0 0
162 2 17.2294 6.68246 7.59547 0 0 0
174 2 17.2363 12.0712 7.59949 0 0 0
149 1 22.6638 -0.0726303 7.62022 0 0 0
7 1 3.52917 -0.0808284 11.3648 0 0 0
10 2 1.42644 0.815144 15.1437 0 0 0
19 1 3.74039 5.28106 11.3974 0 0 0
369 1 -0.768292 -0.252999 15.2528 0 0 0
381 1 -0.692836 5.37758 15.2768 0 0 0
8 2 5.54837 1.32342 11.5504 0 0 0
9 1 7.40183 -0.0813319 15.0211 0 0 0
21 1 7.58826 5.3087 15.0432 0 0 0
82 2 9.42192 1.29442 15.1625 0 0 0
79 1 11.2084 -0.0542497 11.3773 0 0 0
80 2 13.2829 1.25314 11.4906 0 0 0
81 1 15.0503 -0.100813 15.0071 0 0 0
91 1 11.3479 5.39859 11.382 0 0 0
93 1 15.2038 5.34465 15.0217 0 0 0
151 1 18.8517 -0.0722514 11.4282 0 0 0
152 2 20.9073 1.24873 11.4773 0 0 0
154 2 17.0623 1.26675 15.1499 0 0 0
163 1 18.9751 5.40423 11.4418 0 0 0
22 2 1.55797 6.28635 15.0221 0 0 0
31 1 3.78894 10.6373 11.4115 0 0 0
34 2 1.54532 11.7082 15.0082 0 0 0
393 1 -0.720398 10.8376 15.2879 0 0 0
20 2 5.66501 6.8266 11.5294 0 0 0
32 2 5.64093 12.2627 11.5186 0 0 0
33 1 7.62586 10.6768 15.0523 0 0 0
94 2 9.50927 6.8101 15.0773 0 0 0
106 2 9.49016 12.229 15.0633 0 0 0
92 2 13.4101 6.6966 11.4811 0 0 0
103 1 11.3563 10.804 11.3891 0 0 0
104 2 13.4117 12.0877 11.4764 0 0 0
105 1 15.2113 10.7541 15.0279 0 0 0
164 2 21.0463 6.67904 11.4671 0 0 0
166 2 17.1784 6.74329 15.0627 0 0 0
175 1 18.9687 10.8275 11.4516 0 0 0
176 2 21.0532 12.0702 11.4624 0 0 0
178 2 17.1836 12.1411 15.046 0 0 0
11 1 3.98664 -0.263455 18.6996 0 0 0
23 1 4.46812 4.86593 18.6882 0 0 0
12 2 4.95645 2.02231 18.6818 0 0 0
83 1 11.7332 -0.316446 18.7647 0 0 0
84 2 12.5873 2.01705 18.7333 0 0 0
95 1 12.1291 4.86839 18.7215 0 0 0
155 1 19.3626 -0.32384 18.7607 0 0 0
156 2 20.2057 2.00519 18.7299 0 0 0
167 1 19.7461 4.87199 18.7079 0 0 0
35 1 4.49913 10.2172 18.711 0 0 0
24 2 5.00084 7.32685 18.7062 0 0 0
36 2 4.99091 12.6855 18.7163 0 0 0
96 2 12.6336 7.31927 18.7305 0 0 0
107 1 12.1503 10.2267 18.7387 0 0 0
108 2 12.6283 12.6728 18.7296 0 0 0
168 2 20.257 7.31072 18.7227 0 0 0
179 1 19.7628 10.2346 18.7208 0 0 0
180 2 20.2551 12.674 18.7205 0 0 0
153 1 22.6782 -0.104267 15.0169 0 0 0
37 1 -0.222039 15.9068 0.0902733 0 0 0
38 2 1.49181 17.4927 0.850216 0 0 0
39 1 3.69861 16.3113 3.39368 0 0 0
49 1 -0.187138 21.2668 0.0897616 0 0 0
50 2 1.44388 22.9393 0.807149 0 0 0
51 1 3.73305 21.6674 3.41899 0 0 0
40 2 5.77354 17.3972 4.1268 0 0 0
52 2 5.76974 22.8001 4.12849 0 0 0
109 1 8.31174 15.6102 0.32321 0 0 0
110 2 8.81004 18.0454 0.346685 0 0 0
121 1 8.32143 20.9783 0.325405 0 0 0
122 2 8.82407 23.3959 0.366538 0 0 0
111 1 11.4052 16.1485 3.98378 0 0 0
112 2 13.3804 17.5163 4.02238 0 0 0
123 1 11.3999 21.5725 3.97663 0 0 0
124 2 13.3994 22.9126 4.02979 0 0 0
181 1 15.9529 15.6192 0.335321 0 0 0
193 1 15.9509 20.9886 0.337661 0 0 0
182 2 16.4421 18.0547 0.339351 0 0 0
183 1 19.0144 16.1674 4.01491 0 0 0
184 2 21.0102 17.5229 4.01941 0 0 0
194 2 16.4595 23.4207 0.354279 0 0 0
195 1 19.0149 21.5737 3.99948 0 0 0
196 2 21.0133 22.9372 4.02647 0 0 0
61 1 0.000604381 26.6646 0.0994961 0 0 0
62 2 1.71923 28.2368 0.811865 0 0 0
63 1 3.85934 27.1295 3.39153 0 0 0
64 2 5.91578 28.2257 4.12762 0 0 0
133 1 8.37933 26.2842 0.336815 0 0 0
134 2 9.22309 28.593 0.31794 0 0 0
135 1 11.5034 27.0708 3.89797 0 0 0
136 2 13.5456 28.3798 4.04025 0 0 0
205 1 15.999 26.2973 0.33309 0 0 0
206 2 16.8461 28.6212 0.301044 0 0 0
207 1 19.1366 27.0448 3.90955 0 0 0
208 2 21.1529 28.4009 4.03932 0 0 0
42 2 1.46837 17.1826 7.77998 0 0 0
54 2 1.42968 22.6367 7.76982 0 0 0
401 1 -0.762312 16.2101 7.61378 0 0 0
413 1 -0.740316 21.5663 7.60929 0 0 0
41 1 7.5059 16.2251 7.38599 0 0 0
53 1 7.52205 21.6243 7.39465 0 0 0
114 2 9.59233 17.4452 7.64157 0 0 0
126 2 9.6057 22.8413 7.64205 0 0 0
113 1 15.1587 16.223 7.58123 0 0 0
125 1 15.1571 21.6274 7.57912 0 0 0
186 2 17.242 17.4583 7.59962 0 0 0
198 2 17.2417 22.8771 7.60781 0 0 0
66 2 1.58898 28.1092 7.77574 0 0 0
425 1 -0.536584 26.9713 7.60464 0 0 0
65 1 7.6511 27.088 7.41812 0 0 0
138 2 9.74933 28.3192 7.64307 0 0 0
137 1 15.2881 27.065 7.57314 0 0 0
210 2 17.3591 28.3647 7.62231 0 0 0
43 1 3.82656 15.9912 11.4161 0 0 0
46 2 1.51863 17.1386 15.0102 0 0 0
55 1 3.86369 21.3525 11.4175 0 0 0
58 2 1.46938 22.6066 15.0153 0 0 0
405 1 -0.721371 16.2205 15.2929 0 0 0
417 1 -0.701915 21.5681 15.2995 0 0 0
44 2 5.61132 17.6688 11.5133 0 0 0
45 1 7.64785 16.0501 15.052 0 0 0
56 2 5.62051 23.0355 11.5057 0 0 0
57 1 7.64803 21.4739 15.0518 0 0 0
118 2 9.49007 17.6061 15.0632 0 0 0
130 2 9.53331 22.968 15.0582 0 0 0
115 1 11.3618 16.2005 11.3919 0 0 0
116 2 13.4194 17.4665 11.4754 0 0 0
117 1 15.2096 16.1575 15.0248 0 0 0
127 1 11.3603 21.6147 11.4051 0 0 0
128 2 13.4325 22.8699 11.4642 0 0 0
129 1 15.202 21.5769 15.0386 0 0 0
187 1 18.9662 16.2265 11.4544 0 0 0
188 2 21.0543 17.464 11.4609 0 0 0
190 2 17.194 17.5239 15.0451 0 0 0
199 1 18.9687 21.623 11.4614 0 0 0
200 2 21.0484 22.8871 11.4511 0 0 0
202 2 17.2057 22.9298 15.0363 0 0 0
67 1 3.98484 26.82 11.4138 0 0 0
70 2 1.60283 28.0926 15.0419 0 0 0
429 1 -0.512925 26.956 15.2945 0 0 0
68 2 5.86013 28.3719 11.5055 0 0 0
69 1 7.72583 27.0359 15.1307 0 0 0
142 2 9.73257 28.3965 15.0368 0 0 0
139 1 11.4738 27.0757 11.4375 0 0 0
140 2 13.5558 28.3565 11.4438 0 0 0
141 1 15.3158 27.0563 15.1325 0 0 0
211 1 19.1063 27.0545 11.4735 0 0 0
212 2 21.1667 28.3695 11.4364 0 0 0
214 2 17.3448 28.3978 15.0216 0 0 0
47 1 4.51025 15.595 18.7193 0 0 0
59 1 4.52426 20.9449 18.7284 0 0 0
48 2 4.98119 18.0482 18.7238 0 0 0
60 2 4.98394 23.3638 18.7103 0 0 0
119 1 12.1553 15.612 18.7358 0 0 0
120 2 12.6284 18.0474 18.729 0 0 0
131 1 12.1536 20.9836 18.7262 0 0 0
132 2 12.647 23.4106 18.7119 0 0 0
191 1 19.764 15.6209 18.7179 0 0 0
192 2 20.2568 18.059 18.7215 0 0 0
203 1 19.7612 20.9877 18.7179 0 0 0
204 2 20.2735 23.424 18.7078 0 0 0
71 1 4.60253 26.2301 18.7137 0 0 0
72 2 5.38493 28.5454 18.7142 0 0 0
143 1 12.1958 26.2961 18.7184 0 0 0
144 2 13.0375 28.6177 18.7625 0 0 0
215 1 19.8115 26.295 18.7249 0 0 0
216 2 20.6567 28.6217 18.7597 0 0 0
217 1 23.1737 -0.324992 0.294976 0 0 0
218 2 24.0169 2.00248 0.331469 0 0 0
219 1 26.486 -0.101076 4.03548 0 0 0
220 2 28.5137 1.24232 3.92361 0 0 0
229 1 23.5556 4.87333 0.348312 0 0 0
231 1 26.6247 5.36835 4.02088 0 0 0
289 1 30.7928 -0.321007 0.291988 0 0 0
290 2 31.6329 2.00123 0.338108 0 0 0
291 1 34.0986 -0.0996077 4.02012 0 0 0
301 1 31.1818 4.88667 0.344145 0 0 0
303 1 34.2973 5.33044 3.99885 0 0 0
292 2 36.1046 1.26219 3.92561 0 0 0
361 1 38.4458 -0.248725 0.340451 0 0 0
362 2 39.2261 2.06718 0.342645 0 0 0
373 1 38.8451 4.9341 0.346083 0 0 0
363 1 42.2283 0.202817 4.01521 0 0 0
364 2 44.3412 1.34413 3.762 0 0 0
375 1 42.3623 5.68893 4.04186 0 0 0
230 2 24.0681 7.30945 0.33927 0 0 0
232 2 28.6289 6.72031 4.01733 0 0 0
241 1 23.5725 10.2378 0.33434 0 0 0
242 2 24.0653 12.6759 0.339603 0 0 0
243 1 26.6359 10.7751 4.0113 0 0 0
244 2 28.6208 12.1407 4.03187 0 0 0
302 2 31.676 7.31341 0.331121 0 0 0
313 1 31.2008 10.2495 0.326797 0 0 0
314 2 31.6743 12.6848 0.321693 0 0 0
315 1 34.3402 10.6932 3.99308 0 0 0
304 2 36.1838 6.82287 4.0044 0 0 0
316 2 36.1831 12.2482 4.00481 0 0 0
374 2 39.3049 7.35235 0.328368 0 0 0
385 1 38.8483 10.249 0.332114 0 0 0
386 2 39.3189 12.702 0.337599 0 0 0
376 2 44.5315 6.73109 3.75707 0 0 0
387 1 42.3125 11.1576 4.04649 0 0 0
388 2 44.5511 12.0787 3.7636 0 0 0
390 2 40.0022 12.3074 7.6404 0 0 0
161 1 22.7818 5.41076 7.60542 0 0 0
222 2 24.7236 1.24324 7.58286 0 0 0
221 1 30.2745 -0.059594 7.61286 0 0 0
233 1 30.3973 5.42832 7.59234 0 0 0
294 2 32.3563 1.22168 7.61891 0 0 0
293 1 37.9706 -0.0754464 7.55128 0 0 0
305 1 38.2096 5.26222 7.5508 0 0 0
366 2 39.8445 1.47805 7.64249 0 0 0
173 1 22.7756 10.8341 7.59542 0 0 0
234 2 24.862 6.67393 7.59498 0 0 0
246 2 24.864 12.0711 7.60216 0 0 0
245 1 30.41 10.8321 7.58101 0 0 0
306 2 32.4706 6.68167 7.65137 0 0 0
318 2 32.4684 12.0967 7.66469 0 0 0
317 1 38.2188 10.6286 7.54314 0 0 0
378 2 39.9658 6.94536 7.63897 0 0 0
396 2 44.0507 12.3928 18.9655 0 0 0
165 1 22.8177 5.36071 15.0296 0 0 0
223 1 26.4713 -0.0678467 11.4341 0 0 0
224 2 28.5416 1.2328 11.4834 0 0 0
226 2 24.6932 1.25386 15.1472 0 0 0
235 1 26.5882 5.42079 11.4486 0 0 0
225 1 30.2853 -0.0829172 15.0158 0 0 0
237 1 30.431 5.38586 15.0262 0 0 0
295 1 34.0811 -0.0222833 11.4131 0 0 0
298 2 32.3267 1.22738 15.1587 0 0 0
307 1 34.2242 5.45687 11.4142 0 0 0
296 2 36.1791 1.20934 11.6386 0 0 0
297 1 37.9146 0.0710358 14.9278 0 0 0
309 1 38.0606 5.49809 14.9268 0 0 0
370 2 39.9698 1.16897 15.6643 0 0 0
367 1 42.242 0.186477 11.2814 0 0 0
368 2 44.365 1.3288 11.4517 0 0 0
379 1 42.4017 5.65904 11.2871 0 0 0
177 1 22.8204 10.7757 15.0375 0 0 0
236 2 28.6735 6.66946 11.4775 0 0 0
238 2 24.8163 6.72383 15.0575 0 0 0
247 1 26.5876 10.8399 11.457 0 0 0
248 2 28.6713 12.0746 11.4752 0 0 0
250 2 24.8162 12.1311 15.0414 0 0 0
249 1 30.4495 10.783 15.0344 0 0 0
310 2 32.4317 6.72425 15.0802 0 0 0
319 1 34.2373 10.8532 11.4148 0 0 0
322 2 32.4257 12.1494 15.0723 0 0 0
308 2 36.3086 6.67236 11.6622 0 0 0
320 2 36.324 12.0726 11.6707 0 0 0
321 1 38.0564 10.9011 14.9291 0 0 0
382 2 40.0967 6.63032 15.6378 0 0 0
394 2 40.1305 11.9876 15.6624 0 0 0
380 2 44.5697 6.73289 11.4471 0 0 0
391 1 42.3627 11.1135 11.277 0 0 0
392 2 44.5917 12.0891 11.4426 0 0 0
227 1 26.9844 -0.324542 18.7575 0 0 0
228 2 27.8294 2.00011 18.7236 0 0 0
239 1 27.3695 4.87658 18.7028 0 0 0
299 1 34.6074 -0.296454 18.7405 0 0 0
311 1 35.0051 4.90149 18.6902 0 0 0
300 2 35.4494 2.01316 18.7197 0 0 0
371 1 42.1122 0.0585836 18.2474 0 0 0
372 2 43.8276 1.63569 18.9564 0 0 0
383 1 42.3876 5.35636 18.2509 0 0 0
240 2 27.8785 7.30846 18.7181 0 0 0
251 1 27.3872 10.2421 18.718 0 0 0
252 2 27.8765 12.6775 18.7201 0 0 0
323 1 35.0194 10.2516 18.7104 0 0 0
312 2 35.5079 7.31882 18.7304 0 0 0
324 2 35.5175 12.6867 18.7324 0 0 0
384 2 44.016 7.03238 18.9659 0 0 0
395 1 42.3397 10.8027 18.2084 0 0 0
253 1 23.5744 15.6227 0.335127 0 0 0
254 2 24.0663 18.0622 0.336497 0 0 0
255 1 26.6468 16.1571 4.0104 0 0 0
256 2 28.6185 17.545 4.02872 0 0 0
265 1 23.5725 20.9864 0.333207 0 0 0
266 2 24.0828 23.4253 0.349052 0 0 0
267 1 26.6526 21.5539 3.99443 0 0 0
268 2 28.6265 22.9536 4.0341 0 0 0
325 1 31.2011 15.624 0.325951 0 0 0
326 2 31.679 18.0703 0.318535 0 0 0
327 1 34.341 16.0691 3.99297 0 0 0
337 1 31.1957 20.978 0.325381 0 0 0
338 2 31.7001 23.429 0.335525 0 0 0
339 1 34.3225 21.487 3.97967 0 0 0
328 2 36.2044 17.6225 4.00432 0 0 0
340 2 36.2426 22.9895 4.01276 0 0 0
397 1 38.8389 15.6112 0.339288 0 0 0
398 2 39.3301 18.0797 0.345938 0 0 0
409 1 38.8288 20.9703 0.349675 0 0 0
410 2 39.3612 23.4312 0.368822 0 0 0
399 1 42.2856 16.5882 4.04835 0 0 0
400 2 44.55 17.4616 3.76872 0 0 0
411 1 42.2731 22.0099 4.03489 0 0 0
412 2 44.5226 22.9212 3.77983 0 0 0
277 1 23.623 26.2922 0.326821 0 0 0
278 2 24.4677 28.6205 0.297818 0 0 0
279 1 26.7673 27.0318 3.90695 0 0 0
280 2 28.7804 28.3976 4.04891 0 0 0
349 1 31.2411 26.2805 0.32342 0 0 0
350 2 32.0972 28.613 0.2938 0 0 0
351 1 34.4082 27.004 3.89433 0 0 0
352 2 36.4292 28.3781 4.03493 0 0 0
421 1 38.8725 26.2752 0.374962 0 0 0
422 2 39.8436 28.5601 0.358421 0 0 0
423 1 42.4041 27.4817 3.91295 0 0 0
424 2 44.5981 28.5511 3.80377 0 0 0
185 1 22.7772 16.2271 7.59404 0 0 0
197 1 22.7846 21.6175 7.5895 0 0 0
258 2 24.8609 17.471 7.60489 0 0 0
270 2 24.8548 22.8939 7.61456 0 0 0
257 1 30.4183 16.2101 7.58007 0 0 0
269 1 30.4205 21.6004 7.57554 0 0 0
330 2 32.4734 17.4942 7.66759 0 0 0
342 2 32.4821 22.8993 7.67441 0 0 0
329 1 38.19 16.0335 7.53817 0 0 0
341 1 38.1664 21.4691 7.52749 0 0 0
402 2 40.0395 17.6615 7.64486 0 0 0
414 2 40.0887 23.0172 7.6588 0 0 0
209 1 22.9228 27.0488 7.57928 0 0 0
282 2 24.9787 28.3692 7.62814 0 0 0
281 1 30.5468 27.0447 7.56603 0 0 0
354 2 32.6219 28.3511 7.67907 0 0 0
353 1 38.2819 26.9735 7.50629 0 0 0
426 2 40.3006 28.3781 7.69166 0 0 0
189 1 22.8242 16.1679 15.0377 0 0 0
201 1 22.8293 21.5677 15.0545 0 0 0
259 1 26.5937 16.2262 11.4571 0 0 0
260 2 28.6693 17.4766 11.4754 0 0 0
262 2 24.815 17.5306 15.0428 0 0 0
271 1 26.6013 21.6142 11.461 0 0 0
272 2 28.6685 22.8946 11.4675 0 0 0
274 2 24.8177 22.945 15.0368 0 0 0
261 1 30.4581 16.162 15.0342 0 0 0
273 1 30.4558 21.5641 15.0493 0 0 0
331 1 34.234 16.2372 11.4132 0 0 0
334 2 32.4319 17.5459 15.0767 0 0 0
343 1 34.2261 21.6381 11.4168 0 0 0
346 2 32.4495 22.9433 15.0699 0 0 0
332 2 36.3415 17.4503 11.6775 0 0 0
333 1 38.0368 16.3228 14.9251 0 0 0
344 2 36.3581 22.8397 11.6732 0 0 0
345 1 38.0228 21.7639 14.9396 0 0 0
406 2 40.1599 17.333 15.6849 0 0 0
418 2 40.1962 22.6955 15.6803 0 0 0
403 1 42.3389 16.536 11.2674 0 0 0
404 2 44.5887 17.4791 11.4418 0 0 0
415 1 42.3306 21.9429 11.2599 0 0 0
416 2 44.5501 22.9488 11.4415 0 0 0
213 1 22.9504 27.0393 15.1441 0 0 0
283 1 26.7347 27.0489 11.4724 0 0 0
284 2 28.7988 28.3624 11.4533 0 0 0
286 2 24.9628 28.4016 15.0231 0 0 0
285 1 30.5621 27.0509 15.1398 0 0 0
355 1 34.3507 27.0878 11.4377 0 0 0
358 2 32.6093 28.3778 15.0527 0 0 0
356 2 36.4907 28.2992 11.6435 0 0 0
357 1 38.1475 27.2507 15.0761 0 0 0
430 2 40.3842 28.1369 15.6549 0 0 0
427 1 42.4745 27.3878 11.2428 0 0 0
428 2 44.6093 28.5532 11.4497 0 0 0
263 1 27.3888 15.6239 18.7184 0 0 0
264 2 27.8792 18.0643 18.7234 0 0 0
275 1 27.3857 20.9842 18.7205 0 0 0
276 2 27.8981 23.4262 18.7087 0 0 0
335 1 35.0148 15.6188 18.7095 0 0 0
347 1 35.007 20.9763 18.7074 0 0 0
336 2 35.5285 18.0685 18.7273 0 0 0
348 2 35.5555 23.4272 18.6997 0 0 0
407 1 42.3018 16.2437 18.1777 0 0 0
408 2 44.0605 17.7752 18.9626 0 0 0
419 1 42.2909 21.6843 18.1708 0 0 0
420 2 44.0587 23.2025 18.951 0 0 0