Created by /home/rramji/scripts/createLammpsInput.pl on Mon Aug  7 17:02:37 2023

         432 atoms
         216 bonds
           0 angles
           0 dihedrals
           0 impropers

           2 atom types
           1 bond types
           0 angle types
           0 dihedral types
           0 improper types

		  -2.022340  47.647511 xlo xhi
		  -2.022340  32.115001 ylo yhi
		  -2.022340  23.101210 zlo zhi

Masses

    1 6.5377E+01 # Zn     
    2 3.2060E+01 # S_3    

Pair Coeffs

    1    0.05500    4.04468 # Zn Zn 
    2    0.34400    3.59032 # S_3 S_3 

Bond Coeffs

    1      350     2.36 # Zn S_3 

Atoms

       1        1        1  2.00000000    0.00000    0.00000    0.00000    0    0    0
       2        1        2 -2.00000000    1.90565    1.34750    0.00000    0    0    0
       3        2        1  2.00000000    3.81131    0.00000    3.81131    0    0    0
       4        2        2 -2.00000000    5.71696    1.34750    3.81131    0    0    0
       5        3        1  2.00000000    7.62261    0.00000    7.62261    0    0    0
       6        4        2 -2.00000000    1.90565    1.34750    7.62261    0    0    0
       7        5        1  2.00000000    3.81131    0.00000   11.43392    0    0    0
       8        5        2 -2.00000000    5.71696    1.34750   11.43392    0    0    0
       9        6        1  2.00000000    7.62261    0.00000   15.24522    0    0    0
      10        7        2 -2.00000000    1.90565    1.34750   15.24522    0    0    0
      11        8        1  2.00000000    3.81131    0.00000   19.05653    0    0    0
      12        8        2 -2.00000000    5.71696    1.34750   19.05653    0    0    0
      13        9        1  2.00000000    0.00000    5.39000    0.00000    0    0    0
      14        9        2 -2.00000000    1.90565    6.73750    0.00000    0    0    0
      15       10        1  2.00000000    3.81131    5.39000    3.81131    0    0    0
      16       10        2 -2.00000000    5.71696    6.73750    3.81131    0    0    0
      17       11        1  2.00000000    7.62261    5.39000    7.62261    0    0    0
      18       12        2 -2.00000000    1.90565    6.73750    7.62261    0    0    0
      19       13        1  2.00000000    3.81131    5.39000   11.43392    0    0    0
      20       13        2 -2.00000000    5.71696    6.73750   11.43392    0    0    0
      21       14        1  2.00000000    7.62261    5.39000   15.24522    0    0    0
      22       15        2 -2.00000000    1.90565    6.73750   15.24522    0    0    0
      23       16        1  2.00000000    3.81131    5.39000   19.05653    0    0    0
      24       16        2 -2.00000000    5.71696    6.73750   19.05653    0    0    0
      25       17        1  2.00000000    0.00000   10.78000    0.00000    0    0    0
      26       17        2 -2.00000000    1.90565   12.12750    0.00000    0    0    0
      27       18        1  2.00000000    3.81131   10.78000    3.81131    0    0    0
      28       18        2 -2.00000000    5.71696   12.12750    3.81131    0    0    0
      29       19        1  2.00000000    7.62261   10.78000    7.62261    0    0    0
      30       20        2 -2.00000000    1.90565   12.12750    7.62261    0    0    0
      31       21        1  2.00000000    3.81131   10.78000   11.43392    0    0    0
      32       21        2 -2.00000000    5.71696   12.12750   11.43392    0    0    0
      33       22        1  2.00000000    7.62261   10.78000   15.24522    0    0    0
      34       23        2 -2.00000000    1.90565   12.12750   15.24522    0    0    0
      35       24        1  2.00000000    3.81131   10.78000   19.05653    0    0    0
      36       24        2 -2.00000000    5.71696   12.12750   19.05653    0    0    0
      37       25        1  2.00000000    0.00000   16.17000    0.00000    0    0    0
      38       25        2 -2.00000000    1.90565   17.51750    0.00000    0    0    0
      39       26        1  2.00000000    3.81131   16.17000    3.81131    0    0    0
      40       26        2 -2.00000000    5.71696   17.51750    3.81131    0    0    0
      41       27        1  2.00000000    7.62261   16.17000    7.62261    0    0    0
      42       28        2 -2.00000000    1.90565   17.51750    7.62261    0    0    0
      43       29        1  2.00000000    3.81131   16.17000   11.43392    0    0    0
      44       29        2 -2.00000000    5.71696   17.51750   11.43392    0    0    0
      45       30        1  2.00000000    7.62261   16.17000   15.24522    0    0    0
      46       31        2 -2.00000000    1.90565   17.51750   15.24522    0    0    0
      47       32        1  2.00000000    3.81131   16.17000   19.05653    0    0    0
      48       32        2 -2.00000000    5.71696   17.51750   19.05653    0    0    0
      49       33        1  2.00000000    0.00000   21.56000    0.00000    0    0    0
      50       33        2 -2.00000000    1.90565   22.90750    0.00000    0    0    0
      51       34        1  2.00000000    3.81131   21.56000    3.81131    0    0    0
      52       34        2 -2.00000000    5.71696   22.90750    3.81131    0    0    0
      53       35        1  2.00000000    7.62261   21.56000    7.62261    0    0    0
      54       36        2 -2.00000000    1.90565   22.90750    7.62261    0    0    0
      55       37        1  2.00000000    3.81131   21.56000   11.43392    0    0    0
      56       37        2 -2.00000000    5.71696   22.90750   11.43392    0    0    0
      57       38        1  2.00000000    7.62261   21.56000   15.24522    0    0    0
      58       39        2 -2.00000000    1.90565   22.90750   15.24522    0    0    0
      59       40        1  2.00000000    3.81131   21.56000   19.05653    0    0    0
      60       40        2 -2.00000000    5.71696   22.90750   19.05653    0    0    0
      61       41        1  2.00000000    0.00000   26.95000    0.00000    0    0    0
      62       41        2 -2.00000000    1.90565   28.29750    0.00000    0    0    0
      63       42        1  2.00000000    3.81131   26.95000    3.81131    0    0    0
      64       42        2 -2.00000000    5.71696   28.29750    3.81131    0    0    0
      65       43        1  2.00000000    7.62261   26.95000    7.62261    0    0    0
      66       44        2 -2.00000000    1.90565   28.29750    7.62261    0    0    0
      67       45        1  2.00000000    3.81131   26.95000   11.43392    0    0    0
      68       45        2 -2.00000000    5.71696   28.29750   11.43392    0    0    0
      69       46        1  2.00000000    7.62261   26.95000   15.24522    0    0    0
      70       47        2 -2.00000000    1.90565   28.29750   15.24522    0    0    0
      71       48        1  2.00000000    3.81131   26.95000   19.05653    0    0    0
      72       48        2 -2.00000000    5.71696   28.29750   19.05653    0    0    0
      73       49        1  2.00000000    7.62261    0.00000    0.00000    0    0    0
      74       49        2 -2.00000000    9.52826    1.34750    0.00000    0    0    0
      75       50        1  2.00000000   11.43392    0.00000    3.81131    0    0    0
      76       50        2 -2.00000000   13.33957    1.34750    3.81131    0    0    0
      77       51        1  2.00000000   15.24522    0.00000    7.62261    0    0    0
      78        3        2 -2.00000000    9.52826    1.34750    7.62261    0    0    0
      79       52        1  2.00000000   11.43392    0.00000   11.43392    0    0    0
      80       52        2 -2.00000000   13.33957    1.34750   11.43392    0    0    0
      81       53        1  2.00000000   15.24522    0.00000   15.24522    0    0    0
      82        6        2 -2.00000000    9.52826    1.34750   15.24522    0    0    0
      83       54        1  2.00000000   11.43392    0.00000   19.05653    0    0    0
      84       54        2 -2.00000000   13.33957    1.34750   19.05653    0    0    0
      85       55        1  2.00000000    7.62261    5.39000    0.00000    0    0    0
      86       55        2 -2.00000000    9.52826    6.73750    0.00000    0    0    0
      87       56        1  2.00000000   11.43392    5.39000    3.81131    0    0    0
      88       56        2 -2.00000000   13.33957    6.73750    3.81131    0    0    0
      89       57        1  2.00000000   15.24522    5.39000    7.62261    0    0    0
      90       11        2 -2.00000000    9.52826    6.73750    7.62261    0    0    0
      91       58        1  2.00000000   11.43392    5.39000   11.43392    0    0    0
      92       58        2 -2.00000000   13.33957    6.73750   11.43392    0    0    0
      93       59        1  2.00000000   15.24522    5.39000   15.24522    0    0    0
      94       14        2 -2.00000000    9.52826    6.73750   15.24522    0    0    0
      95       60        1  2.00000000   11.43392    5.39000   19.05653    0    0    0
      96       60        2 -2.00000000   13.33957    6.73750   19.05653    0    0    0
      97       61        1  2.00000000    7.62261   10.78000    0.00000    0    0    0
      98       61        2 -2.00000000    9.52826   12.12750    0.00000    0    0    0
      99       62        1  2.00000000   11.43392   10.78000    3.81131    0    0    0
     100       62        2 -2.00000000   13.33957   12.12750    3.81131    0    0    0
     101       63        1  2.00000000   15.24522   10.78000    7.62261    0    0    0
     102       19        2 -2.00000000    9.52826   12.12750    7.62261    0    0    0
     103       64        1  2.00000000   11.43392   10.78000   11.43392    0    0    0
     104       64        2 -2.00000000   13.33957   12.12750   11.43392    0    0    0
     105       65        1  2.00000000   15.24522   10.78000   15.24522    0    0    0
     106       22        2 -2.00000000    9.52826   12.12750   15.24522    0    0    0
     107       66        1  2.00000000   11.43392   10.78000   19.05653    0    0    0
     108       66        2 -2.00000000   13.33957   12.12750   19.05653    0    0    0
     109       67        1  2.00000000    7.62261   16.17000    0.00000    0    0    0
     110       67        2 -2.00000000    9.52826   17.51750    0.00000    0    0    0
     111       68        1  2.00000000   11.43392   16.17000    3.81131    0    0    0
     112       68        2 -2.00000000   13.33957   17.51750    3.81131    0    0    0
     113       69        1  2.00000000   15.24522   16.17000    7.62261    0    0    0
     114       27        2 -2.00000000    9.52826   17.51750    7.62261    0    0    0
     115       70        1  2.00000000   11.43392   16.17000   11.43392    0    0    0
     116       70        2 -2.00000000   13.33957   17.51750   11.43392    0    0    0
     117       71        1  2.00000000   15.24522   16.17000   15.24522    0    0    0
     118       30        2 -2.00000000    9.52826   17.51750   15.24522    0    0    0
     119       72        1  2.00000000   11.43392   16.17000   19.05653    0    0    0
     120       72        2 -2.00000000   13.33957   17.51750   19.05653    0    0    0
     121       73        1  2.00000000    7.62261   21.56000    0.00000    0    0    0
     122       73        2 -2.00000000    9.52826   22.90750    0.00000    0    0    0
     123       74        1  2.00000000   11.43392   21.56000    3.81131    0    0    0
     124       74        2 -2.00000000   13.33957   22.90750    3.81131    0    0    0
     125       75        1  2.00000000   15.24522   21.56000    7.62261    0    0    0
     126       35        2 -2.00000000    9.52826   22.90750    7.62261    0    0    0
     127       76        1  2.00000000   11.43392   21.56000   11.43392    0    0    0
     128       76        2 -2.00000000   13.33957   22.90750   11.43392    0    0    0
     129       77        1  2.00000000   15.24522   21.56000   15.24522    0    0    0
     130       38        2 -2.00000000    9.52826   22.90750   15.24522    0    0    0
     131       78        1  2.00000000   11.43392   21.56000   19.05653    0    0    0
     132       78        2 -2.00000000   13.33957   22.90750   19.05653    0    0    0
     133       79        1  2.00000000    7.62261   26.95000    0.00000    0    0    0
     134       79        2 -2.00000000    9.52826   28.29750    0.00000    0    0    0
     135       80        1  2.00000000   11.43392   26.95000    3.81131    0    0    0
     136       80        2 -2.00000000   13.33957   28.29750    3.81131    0    0    0
     137       81        1  2.00000000   15.24522   26.95000    7.62261    0    0    0
     138       43        2 -2.00000000    9.52826   28.29750    7.62261    0    0    0
     139       82        1  2.00000000   11.43392   26.95000   11.43392    0    0    0
     140       82        2 -2.00000000   13.33957   28.29750   11.43392    0    0    0
     141       83        1  2.00000000   15.24522   26.95000   15.24522    0    0    0
     142       46        2 -2.00000000    9.52826   28.29750   15.24522    0    0    0
     143       84        1  2.00000000   11.43392   26.95000   19.05653    0    0    0
     144       84        2 -2.00000000   13.33957   28.29750   19.05653    0    0    0
     145       85        1  2.00000000   15.24522    0.00000    0.00000    0    0    0
     146       85        2 -2.00000000   17.15087    1.34750    0.00000    0    0    0
     147       86        1  2.00000000   19.05653    0.00000    3.81131    0    0    0
     148       86        2 -2.00000000   20.96218    1.34750    3.81131    0    0    0
     149       87        1  2.00000000   22.86783    0.00000    7.62261    0    0    0
     150       51        2 -2.00000000   17.15087    1.34750    7.62261    0    0    0
     151       88        1  2.00000000   19.05653    0.00000   11.43392    0    0    0
     152       88        2 -2.00000000   20.96218    1.34750   11.43392    0    0    0
     153       89        1  2.00000000   22.86783    0.00000   15.24522    0    0    0
     154       53        2 -2.00000000   17.15087    1.34750   15.24522    0    0    0
     155       90        1  2.00000000   19.05653    0.00000   19.05653    0    0    0
     156       90        2 -2.00000000   20.96218    1.34750   19.05653    0    0    0
     157       91        1  2.00000000   15.24522    5.39000    0.00000    0    0    0
     158       91        2 -2.00000000   17.15087    6.73750    0.00000    0    0    0
     159       92        1  2.00000000   19.05653    5.39000    3.81131    0    0    0
     160       92        2 -2.00000000   20.96218    6.73750    3.81131    0    0    0
     161       93        1  2.00000000   22.86783    5.39000    7.62261    0    0    0
     162       57        2 -2.00000000   17.15087    6.73750    7.62261    0    0    0
     163       94        1  2.00000000   19.05653    5.39000   11.43392    0    0    0
     164       94        2 -2.00000000   20.96218    6.73750   11.43392    0    0    0
     165       95        1  2.00000000   22.86783    5.39000   15.24522    0    0    0
     166       59        2 -2.00000000   17.15087    6.73750   15.24522    0    0    0
     167       96        1  2.00000000   19.05653    5.39000   19.05653    0    0    0
     168       96        2 -2.00000000   20.96218    6.73750   19.05653    0    0    0
     169       97        1  2.00000000   15.24522   10.78000    0.00000    0    0    0
     170       97        2 -2.00000000   17.15087   12.12750    0.00000    0    0    0
     171       98        1  2.00000000   19.05653   10.78000    3.81131    0    0    0
     172       98        2 -2.00000000   20.96218   12.12750    3.81131    0    0    0
     173       99        1  2.00000000   22.86783   10.78000    7.62261    0    0    0
     174       63        2 -2.00000000   17.15087   12.12750    7.62261    0    0    0
     175      100        1  2.00000000   19.05653   10.78000   11.43392    0    0    0
     176      100        2 -2.00000000   20.96218   12.12750   11.43392    0    0    0
     177      101        1  2.00000000   22.86783   10.78000   15.24522    0    0    0
     178       65        2 -2.00000000   17.15087   12.12750   15.24522    0    0    0
     179      102        1  2.00000000   19.05653   10.78000   19.05653    0    0    0
     180      102        2 -2.00000000   20.96218   12.12750   19.05653    0    0    0
     181      103        1  2.00000000   15.24522   16.17000    0.00000    0    0    0
     182      103        2 -2.00000000   17.15087   17.51750    0.00000    0    0    0
     183      104        1  2.00000000   19.05653   16.17000    3.81131    0    0    0
     184      104        2 -2.00000000   20.96218   17.51750    3.81131    0    0    0
     185      105        1  2.00000000   22.86783   16.17000    7.62261    0    0    0
     186       69        2 -2.00000000   17.15087   17.51750    7.62261    0    0    0
     187      106        1  2.00000000   19.05653   16.17000   11.43392    0    0    0
     188      106        2 -2.00000000   20.96218   17.51750   11.43392    0    0    0
     189      107        1  2.00000000   22.86783   16.17000   15.24522    0    0    0
     190       71        2 -2.00000000   17.15087   17.51750   15.24522    0    0    0
     191      108        1  2.00000000   19.05653   16.17000   19.05653    0    0    0
     192      108        2 -2.00000000   20.96218   17.51750   19.05653    0    0    0
     193      109        1  2.00000000   15.24522   21.56000    0.00000    0    0    0
     194      109        2 -2.00000000   17.15087   22.90750    0.00000    0    0    0
     195      110        1  2.00000000   19.05653   21.56000    3.81131    0    0    0
     196      110        2 -2.00000000   20.96218   22.90750    3.81131    0    0    0
     197      111        1  2.00000000   22.86783   21.56000    7.62261    0    0    0
     198       75        2 -2.00000000   17.15087   22.90750    7.62261    0    0    0
     199      112        1  2.00000000   19.05653   21.56000   11.43392    0    0    0
     200      112        2 -2.00000000   20.96218   22.90750   11.43392    0    0    0
     201      113        1  2.00000000   22.86783   21.56000   15.24522    0    0    0
     202       77        2 -2.00000000   17.15087   22.90750   15.24522    0    0    0
     203      114        1  2.00000000   19.05653   21.56000   19.05653    0    0    0
     204      114        2 -2.00000000   20.96218   22.90750   19.05653    0    0    0
     205      115        1  2.00000000   15.24522   26.95000    0.00000    0    0    0
     206      115        2 -2.00000000   17.15087   28.29750    0.00000    0    0    0
     207      116        1  2.00000000   19.05653   26.95000    3.81131    0    0    0
     208      116        2 -2.00000000   20.96218   28.29750    3.81131    0    0    0
     209      117        1  2.00000000   22.86783   26.95000    7.62261    0    0    0
     210       81        2 -2.00000000   17.15087   28.29750    7.62261    0    0    0
     211      118        1  2.00000000   19.05653   26.95000   11.43392    0    0    0
     212      118        2 -2.00000000   20.96218   28.29750   11.43392    0    0    0
     213      119        1  2.00000000   22.86783   26.95000   15.24522    0    0    0
     214       83        2 -2.00000000   17.15087   28.29750   15.24522    0    0    0
     215      120        1  2.00000000   19.05653   26.95000   19.05653    0    0    0
     216      120        2 -2.00000000   20.96218   28.29750   19.05653    0    0    0
     217      121        1  2.00000000   22.86783    0.00000    0.00000    0    0    0
     218      121        2 -2.00000000   24.77349    1.34750    0.00000    0    0    0
     219      122        1  2.00000000   26.67914    0.00000    3.81131    0    0    0
     220      122        2 -2.00000000   28.58479    1.34750    3.81131    0    0    0
     221      123        1  2.00000000   30.49044    0.00000    7.62261    0    0    0
     222       87        2 -2.00000000   24.77349    1.34750    7.62261    0    0    0
     223      124        1  2.00000000   26.67914    0.00000   11.43392    0    0    0
     224      124        2 -2.00000000   28.58479    1.34750   11.43392    0    0    0
     225      125        1  2.00000000   30.49044    0.00000   15.24522    0    0    0
     226       89        2 -2.00000000   24.77349    1.34750   15.24522    0    0    0
     227      126        1  2.00000000   26.67914    0.00000   19.05653    0    0    0
     228      126        2 -2.00000000   28.58479    1.34750   19.05653    0    0    0
     229      127        1  2.00000000   22.86783    5.39000    0.00000    0    0    0
     230      127        2 -2.00000000   24.77349    6.73750    0.00000    0    0    0
     231      128        1  2.00000000   26.67914    5.39000    3.81131    0    0    0
     232      128        2 -2.00000000   28.58479    6.73750    3.81131    0    0    0
     233      129        1  2.00000000   30.49044    5.39000    7.62261    0    0    0
     234       93        2 -2.00000000   24.77349    6.73750    7.62261    0    0    0
     235      130        1  2.00000000   26.67914    5.39000   11.43392    0    0    0
     236      130        2 -2.00000000   28.58479    6.73750   11.43392    0    0    0
     237      131        1  2.00000000   30.49044    5.39000   15.24522    0    0    0
     238       95        2 -2.00000000   24.77349    6.73750   15.24522    0    0    0
     239      132        1  2.00000000   26.67914    5.39000   19.05653    0    0    0
     240      132        2 -2.00000000   28.58479    6.73750   19.05653    0    0    0
     241      133        1  2.00000000   22.86783   10.78000    0.00000    0    0    0
     242      133        2 -2.00000000   24.77349   12.12750    0.00000    0    0    0
     243      134        1  2.00000000   26.67914   10.78000    3.81131    0    0    0
     244      134        2 -2.00000000   28.58479   12.12750    3.81131    0    0    0
     245      135        1  2.00000000   30.49044   10.78000    7.62261    0    0    0
     246       99        2 -2.00000000   24.77349   12.12750    7.62261    0    0    0
     247      136        1  2.00000000   26.67914   10.78000   11.43392    0    0    0
     248      136        2 -2.00000000   28.58479   12.12750   11.43392    0    0    0
     249      137        1  2.00000000   30.49044   10.78000   15.24522    0    0    0
     250      101        2 -2.00000000   24.77349   12.12750   15.24522    0    0    0
     251      138        1  2.00000000   26.67914   10.78000   19.05653    0    0    0
     252      138        2 -2.00000000   28.58479   12.12750   19.05653    0    0    0
     253      139        1  2.00000000   22.86783   16.17000    0.00000    0    0    0
     254      139        2 -2.00000000   24.77349   17.51750    0.00000    0    0    0
     255      140        1  2.00000000   26.67914   16.17000    3.81131    0    0    0
     256      140        2 -2.00000000   28.58479   17.51750    3.81131    0    0    0
     257      141        1  2.00000000   30.49044   16.17000    7.62261    0    0    0
     258      105        2 -2.00000000   24.77349   17.51750    7.62261    0    0    0
     259      142        1  2.00000000   26.67914   16.17000   11.43392    0    0    0
     260      142        2 -2.00000000   28.58479   17.51750   11.43392    0    0    0
     261      143        1  2.00000000   30.49044   16.17000   15.24522    0    0    0
     262      107        2 -2.00000000   24.77349   17.51750   15.24522    0    0    0
     263      144        1  2.00000000   26.67914   16.17000   19.05653    0    0    0
     264      144        2 -2.00000000   28.58479   17.51750   19.05653    0    0    0
     265      145        1  2.00000000   22.86783   21.56000    0.00000    0    0    0
     266      145        2 -2.00000000   24.77349   22.90750    0.00000    0    0    0
     267      146        1  2.00000000   26.67914   21.56000    3.81131    0    0    0
     268      146        2 -2.00000000   28.58479   22.90750    3.81131    0    0    0
     269      147        1  2.00000000   30.49044   21.56000    7.62261    0    0    0
     270      111        2 -2.00000000   24.77349   22.90750    7.62261    0    0    0
     271      148        1  2.00000000   26.67914   21.56000   11.43392    0    0    0
     272      148        2 -2.00000000   28.58479   22.90750   11.43392    0    0    0
     273      149        1  2.00000000   30.49044   21.56000   15.24522    0    0    0
     274      113        2 -2.00000000   24.77349   22.90750   15.24522    0    0    0
     275      150        1  2.00000000   26.67914   21.56000   19.05653    0    0    0
     276      150        2 -2.00000000   28.58479   22.90750   19.05653    0    0    0
     277      151        1  2.00000000   22.86783   26.95000    0.00000    0    0    0
     278      151        2 -2.00000000   24.77349   28.29750    0.00000    0    0    0
     279      152        1  2.00000000   26.67914   26.95000    3.81131    0    0    0
     280      152        2 -2.00000000   28.58479   28.29750    3.81131    0    0    0
     281      153        1  2.00000000   30.49044   26.95000    7.62261    0    0    0
     282      117        2 -2.00000000   24.77349   28.29750    7.62261    0    0    0
     283      154        1  2.00000000   26.67914   26.95000   11.43392    0    0    0
     284      154        2 -2.00000000   28.58479   28.29750   11.43392    0    0    0
     285      155        1  2.00000000   30.49044   26.95000   15.24522    0    0    0
     286      119        2 -2.00000000   24.77349   28.29750   15.24522    0    0    0
     287      156        1  2.00000000   26.67914   26.95000   19.05653    0    0    0
     288      156        2 -2.00000000   28.58479   28.29750   19.05653    0    0    0
     289      157        1  2.00000000   30.49044    0.00000    0.00000    0    0    0
     290      157        2 -2.00000000   32.39610    1.34750    0.00000    0    0    0
     291      158        1  2.00000000   34.30175    0.00000    3.81131    0    0    0
     292      158        2 -2.00000000   36.20740    1.34750    3.81131    0    0    0
     293      159        1  2.00000000   38.11306    0.00000    7.62261    0    0    0
     294      123        2 -2.00000000   32.39610    1.34750    7.62261    0    0    0
     295      160        1  2.00000000   34.30175    0.00000   11.43392    0    0    0
     296      160        2 -2.00000000   36.20740    1.34750   11.43392    0    0    0
     297      161        1  2.00000000   38.11306    0.00000   15.24522    0    0    0
     298      125        2 -2.00000000   32.39610    1.34750   15.24522    0    0    0
     299      162        1  2.00000000   34.30175    0.00000   19.05653    0    0    0
     300      162        2 -2.00000000   36.20740    1.34750   19.05653    0    0    0
     301      163        1  2.00000000   30.49044    5.39000    0.00000    0    0    0
     302      163        2 -2.00000000   32.39610    6.73750    0.00000    0    0    0
     303      164        1  2.00000000   34.30175    5.39000    3.81131    0    0    0
     304      164        2 -2.00000000   36.20740    6.73750    3.81131    0    0    0
     305      165        1  2.00000000   38.11306    5.39000    7.62261    0    0    0
     306      129        2 -2.00000000   32.39610    6.73750    7.62261    0    0    0
     307      166        1  2.00000000   34.30175    5.39000   11.43392    0    0    0
     308      166        2 -2.00000000   36.20740    6.73750   11.43392    0    0    0
     309      167        1  2.00000000   38.11306    5.39000   15.24522    0    0    0
     310      131        2 -2.00000000   32.39610    6.73750   15.24522    0    0    0
     311      168        1  2.00000000   34.30175    5.39000   19.05653    0    0    0
     312      168        2 -2.00000000   36.20740    6.73750   19.05653    0    0    0
     313      169        1  2.00000000   30.49044   10.78000    0.00000    0    0    0
     314      169        2 -2.00000000   32.39610   12.12750    0.00000    0    0    0
     315      170        1  2.00000000   34.30175   10.78000    3.81131    0    0    0
     316      170        2 -2.00000000   36.20740   12.12750    3.81131    0    0    0
     317      171        1  2.00000000   38.11306   10.78000    7.62261    0    0    0
     318      135        2 -2.00000000   32.39610   12.12750    7.62261    0    0    0
     319      172        1  2.00000000   34.30175   10.78000   11.43392    0    0    0
     320      172        2 -2.00000000   36.20740   12.12750   11.43392    0    0    0
     321      173        1  2.00000000   38.11306   10.78000   15.24522    0    0    0
     322      137        2 -2.00000000   32.39610   12.12750   15.24522    0    0    0
     323      174        1  2.00000000   34.30175   10.78000   19.05653    0    0    0
     324      174        2 -2.00000000   36.20740   12.12750   19.05653    0    0    0
     325      175        1  2.00000000   30.49044   16.17000    0.00000    0    0    0
     326      175        2 -2.00000000   32.39610   17.51750    0.00000    0    0    0
     327      176        1  2.00000000   34.30175   16.17000    3.81131    0    0    0
     328      176        2 -2.00000000   36.20740   17.51750    3.81131    0    0    0
     329      177        1  2.00000000   38.11306   16.17000    7.62261    0    0    0
     330      141        2 -2.00000000   32.39610   17.51750    7.62261    0    0    0
     331      178        1  2.00000000   34.30175   16.17000   11.43392    0    0    0
     332      178        2 -2.00000000   36.20740   17.51750   11.43392    0    0    0
     333      179        1  2.00000000   38.11306   16.17000   15.24522    0    0    0
     334      143        2 -2.00000000   32.39610   17.51750   15.24522    0    0    0
     335      180        1  2.00000000   34.30175   16.17000   19.05653    0    0    0
     336      180        2 -2.00000000   36.20740   17.51750   19.05653    0    0    0
     337      181        1  2.00000000   30.49044   21.56000    0.00000    0    0    0