LAMMPS (8 Feb 2023)
OMP_NUM_THREADS environment is not set. Defaulting to 1 thread. (src/comm.cpp:98)
  using 1 OpenMP thread(s) per MPI task
# define variables

variable       spacing index 10.0
variable       lbox index 20.0
variable       sname string combined_mc
variable       rtemp index 300


#package omp 4

units           real
atom_style      full
boundary        p p p
#pair_style      lj/cut/coul/long  14
pair_style      lj/charmm/coul/long/opt 9 10.00000
#pair_modify     mix arithmetic tail yes
#special_bonds   lj/coul 0.0 0.0 1.0
#kspace_style    ewald 0.0001
bond_style      harmonic
angle_style     harmonic
dihedral_style  harmonic
improper_style  umbrella
kspace_style    pppm 0.0001

# initialize a simple cumbic box for the initial structure

lattice        sc ${spacing}
lattice        sc 10.0
Lattice spacing in x,y,z = 10 10 10
region         mybox block 0 ${lbox} 0 ${lbox} 0 ${lbox} units box
region         mybox block 0 20.0 0 ${lbox} 0 ${lbox} units box
region         mybox block 0 20.0 0 20.0 0 ${lbox} units box
region         mybox block 0 20.0 0 20.0 0 20.0 units box
create_box     8 mybox                bond/types 13                angle/types 5                dihedral/types 11                improper/types 1                extra/bond/per/atom 13                extra/angle/per/atom 10                extra/dihedral/per/atom 20                extra/improper/per/atom 20                extra/special/per/atom 100
Created orthogonal box = (0 0 0) to (20 20 20)
  1 by 1 by 1 MPI processor grid

molecule       xlig xlig.lammps.txt
Read molecule template xlig:
  1 molecules
  0 fragments
  68 atoms with max type 7
  70 bonds with max type 10
  128 angles with max type 4
  188 dihedrals with max type 11
  39 impropers with max type 1
molecule       oleic oleic.lammps.txt
Read molecule template oleic:
  1 molecules
  0 fragments
  54 atoms with max type 6
  53 bonds with max type 13
  100 angles with max type 5
  141 dihedrals with max type 9
  9 impropers with max type 1


pair_modify          mix geometric
#neighbor             2.0 multi
#neigh_modify         every 2 delay 4 check yes
thermo_style         multi
thermo_modify        line multi format float %14.6f flush yes



# originally used box instead of single, which takes no args and auto populates the box until full
create_atoms   0 single 0  0  0   mol oleic 42 units box
Created 54 atoms
  using box units in orthogonal box = (0 0 0) to (20 20 20)
  create_atoms CPU = 0.001 seconds
create_atoms   0 single 10 10 10  mol xlig 42 units box
Created 68 atoms
  using box units in orthogonal box = (0 0 0) to (20 20 20)
  create_atoms CPU = 0.000 seconds

#group xligand molecule xlig

# coeffs
# Masses

mass    1 1.2011E+01 # C_3
mass    2 1.4007E+01 # N_3
mass    3 1.2011E+01 # C_R
mass    4 1.5999E+01 # O_2
mass    5 3.2060E+01 # S_3
mass    6 1.0080E+00 # H_
mass    7 1.0080E+00 # H___A
mass    8 1.5999E+01 # O_R


pair_coeff           1 1 0.09510000 3.47299041 # C_3 C_3
pair_coeff           2 2 0.07740000 3.26256026 # N_3 N_3
pair_coeff           3 3 0.09510000 3.47299041 # C_R C_R
pair_coeff           4 4 0.09570000 3.03315369 # O_2 O_2
pair_coeff           5 5 0.34400001 3.59032202 # S_3 S_3
pair_coeff           6 6 0.01520000 2.84642134 # H_ H_
pair_coeff           7 7 0.01520000 2.84642134 # H___A H___A
pair_coeff           8 8 0.09570000 3.03315369 # O_R O_R


pair_modify          mix geometric
neighbor             2.0 multi
neigh_modify         every 2 delay 4 check yes
thermo_style         multi
WARNING: New thermo_style command, previous thermo_modify settings will be lost (src/output.cpp:896)
thermo_modify        line multi format float %14.6f flush yes

bond_coeff           1 350 1.53000 # C_3 C_3
bond_coeff           2 350 1.09000 # C_3 H_
bond_coeff           3 350 1.46200 # N_3 C_3
bond_coeff           4 350 1.39200 # N_3 C_R
bond_coeff           5 525 1.39000 # C_R C_R
bond_coeff           6 350 1.02000 # C_R H_
bond_coeff           7 700 1.25000 # O_2 C_R
bond_coeff           8 350 1.73000 # S_3 C_R
bond_coeff           9 350 1.80000 # S_3 C_3
bond_coeff           10 350 1.36000 # S_3 H___A
bond_coeff           11 525 1.35000 # O_R C_R
bond_coeff           12 350 0.98000 # O_R H___A
bond_coeff           13 350 1.46000 # C_R C_3


angle_coeff          1 50 109.47100 # X C_3 X
angle_coeff          2 50 106.70000 # X N_3 X
angle_coeff          3 50 120 # X C_R X
angle_coeff          4 50 92.10000 # X S_3 X
angle_coeff          5 50 120 # X O_R X


dihedral_coeff       1 0.08333 -1 6 # C_R C_R C_3 X
dihedral_coeff       2 0.08333 -1 6 # O_2 C_R C_3 X
dihedral_coeff       3 0.08333 -1 6 # O_R C_R C_3 X
dihedral_coeff       4 0.11111 1 3 # X C_3 C_3 X
dihedral_coeff       5 0.16667 1 3 # X C_R C_3 X
dihedral_coeff       6 3.12500 -1 2 # X C_R C_R X
dihedral_coeff       7 0.16667 1 3 # X N_3 C_3 X
dihedral_coeff       8 0.12500 -1 6 # X N_3 C_R C_R
dihedral_coeff       9 6.25000 -1 2 # X O_R C_R X
dihedral_coeff       10 0.33333 1 3 # X S_3 C_3 X
dihedral_coeff       11 0.50000 -1 2 # X S_3 C_R X

improper_coeff       1 13.33333 0 # C_R X X X

timestep             0.5

print                .
.
print                ==========================================
==========================================
print                "500 steps CG Minimization"
500 steps CG Minimization
print                ==========================================
==========================================
print                .
.

dump                 1 all custom 25 ${sname}.min.lammpstrj id type xu yu zu vx vy vz
dump                 1 all custom 25 combined_mc.min.lammpstrj id type xu yu zu vx vy vz
thermo               10
min_style            sd
minimize             1.0e-4 1.0e-4 500 5000

CITE-CITE-CITE-CITE-CITE-CITE-CITE-CITE-CITE-CITE-CITE-CITE-CITE

Your simulation uses code contributions which should be cited:

- neighbor multi command: doi:10.1016/j.cpc.2008.03.005, doi:10.1007/s40571-020-00361-2

@Article{Intveld08,
 author =  {in 't Veld, P. J. and S. J.~Plimpton and G. S. Grest},
 title =   {Accurate and Efficient Methods for Modeling Colloidal
            Mixtures in an Explicit Solvent using Molecular Dynamics},
 journal = {Comput.\ Phys.\ Commut.},
 year =    2008,
 volume =  179,
 pages =   {320--329}
}

@article{Shire2020,
 author = {Shire, Tom and Hanley, Kevin J. and Stratford, Kevin},
 title = {{DEM} Simulations of Polydisperse Media: Efficient Contact
          Detection Applied to Investigate the Quasi-Static Limit},
 journal = {Computational Particle Mechanics},
 year = {2020}
}

CITE-CITE-CITE-CITE-CITE-CITE-CITE-CITE-CITE-CITE-CITE-CITE-CITE

Switching to 'neigh_modify every 1 delay 0 check yes' setting during minimization
PPPM initialization ...
WARNING: System is not charge neutral, net charge = -0.0006 (src/kspace.cpp:327)
  using 12-bit tables for long-range coulomb (src/kspace.cpp:342)
  G vector (1/distance) = 0.14809026
  grid = 3 3 3
  stencil order = 5
  estimated absolute RMS force accuracy = 0.031780157
  estimated relative force accuracy = 9.5704998e-05
  using double precision FFTW3
  3d grid and FFT values/proc = 512 27
Generated 28 of 28 mixed pair_coeff terms from geometric mixing rule
Neighbor list info ...
  update: every = 1 steps, delay = 0 steps, check = yes
  max neighbors/atom: 2000, page size: 100000
  master list distance cutoff = 12
  ghost atom cutoff = 12
  binsize = 6, bins = 4 4 4
  1 neighbor lists, perpetual/occasional/extra = 1 0 0
  (1) pair lj/charmm/coul/long/opt, perpetual
      attributes: half, newton on
      pair build: half/multi/newton
      stencil: half/multi/3d
      bin: multi
Per MPI rank memory allocation (min/avg/max) = 31.79 | 31.79 | 31.79 Mbytes
------------ Step              0 ----- CPU =            0 (sec) -------------
TotEng   =   47704.531398 KinEng   =       0.000000 Temp     =       0.000000 
PotEng   =   47704.531398 E_bond   =     110.088059 E_angle  =      36.601372 
E_dihed  =      19.805602 E_impro  =       3.329327 E_vdwl   =   47535.850125 
E_coul   =      24.998785 E_long   =     -26.141872 Press    = 1638373.071719
------------ Step             10 ----- CPU =  0.002528548 (sec) -------------
TotEng   =     597.919516 KinEng   =       0.000000 Temp     =       0.000000 
PotEng   =     597.919516 E_bond   =      29.092403 E_angle  =     169.454584 
E_dihed  =      21.557370 E_impro  =       0.961529 E_vdwl   =     378.488320 
E_coul   =      24.477600 E_long   =     -26.112289 Press    =   19084.374650
------------ Step             20 ----- CPU =  0.006159762 (sec) -------------
TotEng   =     363.602148 KinEng   =       0.000000 Temp     =       0.000000 
PotEng   =     363.602148 E_bond   =      27.360411 E_angle  =     148.396204 
E_dihed  =      24.017388 E_impro  =       0.526690 E_vdwl   =     165.054408 
E_coul   =      24.356226 E_long   =     -26.109179 Press    =    9003.455215
------------ Step             30 ----- CPU =   0.01012278 (sec) -------------
TotEng   =     305.518875 KinEng   =       0.000000 Temp     =       0.000000 
PotEng   =     305.518875 E_bond   =      26.406984 E_angle  =     134.009010 
E_dihed  =      25.211274 E_impro  =       0.432359 E_vdwl   =     121.251997 
E_coul   =      24.317945 E_long   =     -26.110695 Press    =    6585.094698
------------ Step             40 ----- CPU =   0.01389968 (sec) -------------
TotEng   =     272.495801 KinEng   =       0.000000 Temp     =       0.000000 
PotEng   =     272.495801 E_bond   =      27.736846 E_angle  =     126.552510 
E_dihed  =      26.353465 E_impro  =       0.411599 E_vdwl   =      93.246981 
E_coul   =      24.305362 E_long   =     -26.110961 Press    =    4878.910280
------------ Step             50 ----- CPU =   0.01844553 (sec) -------------
TotEng   =     245.159806 KinEng   =       0.000000 Temp     =       0.000000 
PotEng   =     245.159806 E_bond   =      30.983296 E_angle  =     123.170925 
E_dihed  =      27.880674 E_impro  =       0.398848 E_vdwl   =      64.644655 
E_coul   =      24.193262 E_long   =     -26.111855 Press    =    2990.496041
------------ Step             60 ----- CPU =   0.02226879 (sec) -------------
TotEng   =     232.088457 KinEng   =       0.000000 Temp     =       0.000000 
PotEng   =     232.088457 E_bond   =      33.563827 E_angle  =     123.941137 
E_dihed  =      28.975816 E_impro  =       0.396940 E_vdwl   =      47.185469 
E_coul   =      24.139373 E_long   =     -26.114105 Press    =    1760.449834
------------ Step             70 ----- CPU =   0.02612697 (sec) -------------
TotEng   =     229.478077 KinEng   =       0.000000 Temp     =       0.000000 
PotEng   =     229.478077 E_bond   =      34.060690 E_angle  =     124.330143 
E_dihed  =      29.228241 E_impro  =       0.400890 E_vdwl   =      43.439443 
E_coul   =      24.133807 E_long   =     -26.115136 Press    =    1487.285894
------------ Step             80 ----- CPU =   0.03008329 (sec) -------------
TotEng   =     227.994370 KinEng   =       0.000000 Temp     =       0.000000 
PotEng   =     227.994370 E_bond   =      34.317808 E_angle  =     124.590191 
E_dihed  =      29.379487 E_impro  =       0.404676 E_vdwl   =      41.296624 
E_coul   =      24.121468 E_long   =     -26.115883 Press    =    1327.732726
------------ Step             90 ----- CPU =   0.03385754 (sec) -------------
TotEng   =     226.710130 KinEng   =       0.000000 Temp     =       0.000000 
PotEng   =     226.710130 E_bond   =      34.528349 E_angle  =     124.837913 
E_dihed  =      29.517287 E_impro  =       0.409179 E_vdwl   =      39.433264 
E_coul   =      24.100786 E_long   =     -26.116647 Press    =    1186.566297
------------ Step            100 ----- CPU =   0.03781214 (sec) -------------
TotEng   =     225.129029 KinEng   =       0.000000 Temp     =       0.000000 
PotEng   =     225.129029 E_bond   =      34.793443 E_angle  =     125.188367 
E_dihed  =      29.707124 E_impro  =       0.417185 E_vdwl   =      37.044855 
E_coul   =      24.095873 E_long   =     -26.117818 Press    =    1001.976695
------------ Step            110 ----- CPU =   0.04159883 (sec) -------------
TotEng   =     221.340926 KinEng   =       0.000000 Temp     =       0.000000 
PotEng   =     221.340926 E_bond   =      34.690397 E_angle  =     125.831989 
E_dihed  =      30.214052 E_impro  =       0.470510 E_vdwl   =      32.193774 
E_coul   =      24.062000 E_long   =     -26.121797 Press    =     655.357963
------------ Step            120 ----- CPU =   0.04538574 (sec) -------------
TotEng   =     220.966212 KinEng   =       0.000000 Temp     =       0.000000 
PotEng   =     220.966212 E_bond   =      34.687403 E_angle  =     125.789437 
E_dihed  =      30.262854 E_impro  =       0.478834 E_vdwl   =      31.812727 
E_coul   =      24.057491 E_long   =     -26.122534 Press    =     637.605605
------------ Step            130 ----- CPU =   0.04935717 (sec) -------------
TotEng   =     220.632279 KinEng   =       0.000000 Temp     =       0.000000 
PotEng   =     220.632279 E_bond   =      34.641457 E_angle  =     125.793585 
E_dihed  =      30.308833 E_impro  =       0.486504 E_vdwl   =      31.460959 
E_coul   =      24.063933 E_long   =     -26.122993 Press    =     612.465031
------------ Step            131 ----- CPU =    0.0501189 (sec) -------------
TotEng   =     220.612485 KinEng   =       0.000000 Temp     =       0.000000 
PotEng   =     220.612485 E_bond   =      34.638106 E_angle  =     125.820698 
E_dihed  =      30.310111 E_impro  =       0.484007 E_vdwl   =      31.402046 
E_coul   =      24.080448 E_long   =     -26.122931 Press    =     600.596802
Loop time of 0.0501316 on 1 procs for 131 steps with 122 atoms

99.7% CPU use with 1 MPI tasks x 1 OpenMP threads

Minimization stats:
  Stopping criterion = energy tolerance
  Energy initial, next-to-last, final = 
      47704.5313982105   220.632278511327   220.612485273118
  Force two-norm initial, final = 806464.23 13.059686
  Force max component initial, final = 496010.83 4.4680488
  Final line search alpha, max atom move = 0.04347975 0.19426965
  Iterations, force evaluations = 131 254

MPI task timing breakdown:
Section |  min time  |  avg time  |  max time  |%varavg| %total
---------------------------------------------------------------
Pair    | 0.027986   | 0.027986   | 0.027986   |   0.0 | 55.82
Bond    | 0.0084889  | 0.0084889  | 0.0084889  |   0.0 | 16.93
Kspace  | 0.010201   | 0.010201   | 0.010201   |   0.0 | 20.35
Neigh   | 0.00050419 | 0.00050419 | 0.00050419 |   0.0 |  1.01
Comm    | 0.0011484  | 0.0011484  | 0.0011484  |   0.0 |  2.29
Output  | 0.0010658  | 0.0010658  | 0.0010658  |   0.0 |  2.13
Modify  | 0          | 0          | 0          |   0.0 |  0.00
Other   |            | 0.0007369  |            |       |  1.47

Nlocal:            122 ave         122 max         122 min
Histogram: 1 0 0 0 0 0 0 0 0 0
Nghost:           1288 ave        1288 max        1288 min
Histogram: 1 0 0 0 0 0 0 0 0 0
Neighs:           6236 ave        6236 max        6236 min
Histogram: 1 0 0 0 0 0 0 0 0 0

Total # of neighbors = 6236
Ave neighs/atom = 51.114754
Ave special neighs/atom = 10.967213
Neighbor list builds = 1
Dangerous builds = 0
min_style            cg
minimize             1.0e-4 1.0e-4 500 5000
Switching to 'neigh_modify every 1 delay 0 check yes' setting during minimization
PPPM initialization ...
  using 12-bit tables for long-range coulomb (src/kspace.cpp:342)
  G vector (1/distance) = 0.14809026
  grid = 3 3 3
  stencil order = 5
  estimated absolute RMS force accuracy = 0.031780157
  estimated relative force accuracy = 9.5704998e-05
  using double precision FFTW3
  3d grid and FFT values/proc = 512 27
Generated 28 of 28 mixed pair_coeff terms from geometric mixing rule
Per MPI rank memory allocation (min/avg/max) = 31.79 | 31.79 | 31.79 Mbytes
------------ Step            131 ----- CPU =            0 (sec) -------------
TotEng   =     220.612485 KinEng   =       0.000000 Temp     =       0.000000 
PotEng   =     220.612485 E_bond   =      34.638106 E_angle  =     125.820698 
E_dihed  =      30.310111 E_impro  =       0.484007 E_vdwl   =      31.402046 
E_coul   =      24.080448 E_long   =     -26.122931 Press    =     600.596802
------------ Step            140 ----- CPU =  0.003105029 (sec) -------------
TotEng   =     212.425374 KinEng   =       0.000000 Temp     =       0.000000 
PotEng   =     212.425374 E_bond   =      33.459162 E_angle  =     126.684069 
E_dihed  =      31.306278 E_impro  =       0.725980 E_vdwl   =      22.518227 
E_coul   =      23.869491 E_long   =     -26.137835 Press    =     -55.638077
------------ Step            150 ----- CPU =  0.007120757 (sec) -------------
TotEng   =     209.956918 KinEng   =       0.000000 Temp     =       0.000000 
PotEng   =     209.956918 E_bond   =      31.898827 E_angle  =     125.491668 
E_dihed  =      31.397465 E_impro  =       0.476505 E_vdwl   =      22.957561 
E_coul   =      23.877340 E_long   =     -26.142448 Press    =      73.612473
------------ Step            160 ----- CPU =   0.01094253 (sec) -------------
TotEng   =     208.621384 KinEng   =       0.000000 Temp     =       0.000000 
PotEng   =     208.621384 E_bond   =      31.298440 E_angle  =     123.838180 
E_dihed  =      31.726794 E_impro  =       0.457431 E_vdwl   =      23.685149 
E_coul   =      23.756065 E_long   =     -26.140674 Press    =      65.633795
------------ Step            170 ----- CPU =   0.01532773 (sec) -------------
TotEng   =     207.294705 KinEng   =       0.000000 Temp     =       0.000000 
PotEng   =     207.294705 E_bond   =      31.301870 E_angle  =     122.512322 
E_dihed  =      31.773932 E_impro  =       0.407268 E_vdwl   =      23.757986 
E_coul   =      23.675689 E_long   =     -26.134362 Press    =     -54.095758
------------ Step            180 ----- CPU =   0.01938318 (sec) -------------
TotEng   =     206.022812 KinEng   =       0.000000 Temp     =       0.000000 
PotEng   =     206.022812 E_bond   =      31.673360 E_angle  =     123.285201 
E_dihed  =      30.492897 E_impro  =       0.491935 E_vdwl   =      22.466750 
E_coul   =      23.743303 E_long   =     -26.130633 Press    =    -176.372073
------------ Step            190 ----- CPU =    0.0232504 (sec) -------------
TotEng   =     204.935218 KinEng   =       0.000000 Temp     =       0.000000 
PotEng   =     204.935218 E_bond   =      31.275977 E_angle  =     123.834331 
E_dihed  =      29.451767 E_impro  =       0.497483 E_vdwl   =      22.250259 
E_coul   =      23.750850 E_long   =     -26.125450 Press    =    -226.507613
------------ Step            200 ----- CPU =   0.02724335 (sec) -------------
TotEng   =     204.297659 KinEng   =       0.000000 Temp     =       0.000000 
PotEng   =     204.297659 E_bond   =      30.838433 E_angle  =     123.707946 
E_dihed  =      28.984497 E_impro  =       0.550493 E_vdwl   =      22.589625 
E_coul   =      23.752784 E_long   =     -26.126119 Press    =    -102.378605
------------ Step            210 ----- CPU =   0.03106817 (sec) -------------
TotEng   =     203.641204 KinEng   =       0.000000 Temp     =       0.000000 
PotEng   =     203.641204 E_bond   =      30.830477 E_angle  =     124.475667 
E_dihed  =      28.323618 E_impro  =       0.554073 E_vdwl   =      21.854940 
E_coul   =      23.731725 E_long   =     -26.129296 Press    =    -110.642692
------------ Step            220 ----- CPU =   0.03496197 (sec) -------------
TotEng   =     203.076052 KinEng   =       0.000000 Temp     =       0.000000 
PotEng   =     203.076052 E_bond   =      30.794228 E_angle  =     124.980126 
E_dihed  =      27.667504 E_impro  =       0.581199 E_vdwl   =      21.475089 
E_coul   =      23.707999 E_long   =     -26.130092 Press    =    -107.383273
------------ Step            230 ----- CPU =   0.03895031 (sec) -------------
TotEng   =     202.300616 KinEng   =       0.000000 Temp     =       0.000000 
PotEng   =     202.300616 E_bond   =      31.348649 E_angle  =     125.252785 
E_dihed  =      26.477371 E_impro  =       0.535625 E_vdwl   =      21.142333 
E_coul   =      23.674038 E_long   =     -26.130185 Press    =    -177.552979
------------ Step            240 ----- CPU =   0.04334204 (sec) -------------
TotEng   =     201.378594 KinEng   =       0.000000 Temp     =       0.000000 
PotEng   =     201.378594 E_bond   =      31.000447 E_angle  =     127.483499 
E_dihed  =      25.257553 E_impro  =       0.579859 E_vdwl   =      19.582653 
E_coul   =      23.602764 E_long   =     -26.128181 Press    =    -190.034581
------------ Step            250 ----- CPU =   0.04734871 (sec) -------------
TotEng   =     200.780079 KinEng   =       0.000000 Temp     =       0.000000 
PotEng   =     200.780079 E_bond   =      31.429004 E_angle  =     128.281512 
E_dihed  =      24.399068 E_impro  =       0.556113 E_vdwl   =      18.684366 
E_coul   =      23.555844 E_long   =     -26.125829 Press    =    -276.882619
------------ Step            260 ----- CPU =   0.05120704 (sec) -------------
TotEng   =     200.423520 KinEng   =       0.000000 Temp     =       0.000000 
PotEng   =     200.423520 E_bond   =      31.200958 E_angle  =     128.291919 
E_dihed  =      24.106962 E_impro  =       0.524786 E_vdwl   =      18.893416 
E_coul   =      23.531911 E_long   =     -26.126433 Press    =    -238.300007
------------ Step            270 ----- CPU =     0.055028 (sec) -------------
TotEng   =     200.084265 KinEng   =       0.000000 Temp     =       0.000000 
PotEng   =     200.084265 E_bond   =      31.258968 E_angle  =     128.382408 
E_dihed  =      24.314282 E_impro  =       0.523130 E_vdwl   =      18.265444 
E_coul   =      23.467343 E_long   =     -26.127309 Press    =    -240.575362
------------ Step            274 ----- CPU =   0.06651166 (sec) -------------
TotEng   =     199.924360 KinEng   =       0.000000 Temp     =       0.000000 
PotEng   =     199.924360 E_bond   =      31.297607 E_angle  =     128.268811 
E_dihed  =      24.470173 E_impro  =       0.493469 E_vdwl   =      18.126427 
E_coul   =      23.395525 E_long   =     -26.127653 Press    =    -233.479957
Loop time of 0.0665242 on 1 procs for 143 steps with 122 atoms

98.6% CPU use with 1 MPI tasks x 1 OpenMP threads

Minimization stats:
  Stopping criterion = linesearch alpha is zero
  Energy initial, next-to-last, final = 
      220.612485273118   199.924359897976   199.924359897976
  Force two-norm initial, final = 13.059686 7.5612355
  Force max component initial, final = 4.4680488 1.4494008
  Final line search alpha, max atom move = 1.1069788e-10 1.6044559e-10
  Iterations, force evaluations = 143 335

MPI task timing breakdown:
Section |  min time  |  avg time  |  max time  |%varavg| %total
---------------------------------------------------------------
Pair    | 0.037285   | 0.037285   | 0.037285   |   0.0 | 56.05
Bond    | 0.011261   | 0.011261   | 0.011261   |   0.0 | 16.93
Kspace  | 0.013486   | 0.013486   | 0.013486   |   0.0 | 20.27
Neigh   | 0.00099314 | 0.00099314 | 0.00099314 |   0.0 |  1.49
Comm    | 0.0014869  | 0.0014869  | 0.0014869  |   0.0 |  2.24
Output  | 0.0010732  | 0.0010732  | 0.0010732  |   0.0 |  1.61
Modify  | 0          | 0          | 0          |   0.0 |  0.00
Other   |            | 0.0009389  |            |       |  1.41

Nlocal:            122 ave         122 max         122 min
Histogram: 1 0 0 0 0 0 0 0 0 0
Nghost:           1247 ave        1247 max        1247 min
Histogram: 1 0 0 0 0 0 0 0 0 0
Neighs:           6233 ave        6233 max        6233 min
Histogram: 1 0 0 0 0 0 0 0 0 0

Total # of neighbors = 6233
Ave neighs/atom = 51.090164
Ave special neighs/atom = 10.967213
Neighbor list builds = 2
Dangerous builds = 0
#now                 minimize the entire system
minimize             1.0e-4 1.0e-4 500 5000
Switching to 'neigh_modify every 1 delay 0 check yes' setting during minimization
PPPM initialization ...
  using 12-bit tables for long-range coulomb (src/kspace.cpp:342)
  G vector (1/distance) = 0.14809026
  grid = 3 3 3
  stencil order = 5
  estimated absolute RMS force accuracy = 0.031780157
  estimated relative force accuracy = 9.5704998e-05
  using double precision FFTW3
  3d grid and FFT values/proc = 512 27
Generated 28 of 28 mixed pair_coeff terms from geometric mixing rule
Per MPI rank memory allocation (min/avg/max) = 31.79 | 31.79 | 31.79 Mbytes
------------ Step            274 ----- CPU =            0 (sec) -------------
TotEng   =     199.924360 KinEng   =       0.000000 Temp     =       0.000000 
PotEng   =     199.924360 E_bond   =      31.297607 E_angle  =     128.268811 
E_dihed  =      24.470173 E_impro  =       0.493469 E_vdwl   =      18.126427 
E_coul   =      23.395525 E_long   =     -26.127653 Press    =    -233.479957
------------ Step            275 ----- CPU =  0.000796792 (sec) -------------
TotEng   =     199.907590 KinEng   =       0.000000 Temp     =       0.000000 
PotEng   =     199.907590 E_bond   =      31.269813 E_angle  =     128.241937 
E_dihed  =      24.473418 E_impro  =       0.498342 E_vdwl   =      18.154659 
E_coul   =      23.396982 E_long   =     -26.127561 Press    =    -234.169121
Loop time of 0.000808764 on 1 procs for 1 steps with 122 atoms

99.7% CPU use with 1 MPI tasks x 1 OpenMP threads

Minimization stats:
  Stopping criterion = energy tolerance
  Energy initial, next-to-last, final = 
      199.924359897976   199.924359897976   199.907590317636
  Force two-norm initial, final = 7.5612355 4.6004521
  Force max component initial, final = 1.4494008 0.9241665
  Final line search alpha, max atom move = 0.068994031 0.063761972
  Iterations, force evaluations = 1 2

MPI task timing breakdown:
Section |  min time  |  avg time  |  max time  |%varavg| %total
---------------------------------------------------------------
Pair    | 0.00036628 | 0.00036628 | 0.00036628 |   0.0 | 45.29
Bond    | 0.0001114  | 0.0001114  | 0.0001114  |   0.0 | 13.77
Kspace  | 0.00012081 | 0.00012081 | 0.00012081 |   0.0 | 14.94
Neigh   | 0          | 0          | 0          |   0.0 |  0.00
Comm    | 1.2994e-05 | 1.2994e-05 | 1.2994e-05 |   0.0 |  1.61
Output  | 0          | 0          | 0          |   0.0 |  0.00
Modify  | 0          | 0          | 0          |   0.0 |  0.00
Other   |            | 0.0001973  |            |       | 24.39

Nlocal:            122 ave         122 max         122 min
Histogram: 1 0 0 0 0 0 0 0 0 0
Nghost:           1233 ave        1233 max        1233 min
Histogram: 1 0 0 0 0 0 0 0 0 0
Neighs:           6212 ave        6212 max        6212 min
Histogram: 1 0 0 0 0 0 0 0 0 0

Total # of neighbors = 6212
Ave neighs/atom = 50.918033
Ave special neighs/atom = 10.967213
Neighbor list builds = 0
Dangerous builds = 0
undump               1

print                .
.
print                =====================================
=====================================
print                "NVT dynamics to heat system"
NVT dynamics to heat system
print                =====================================
=====================================
print                .
.

reset_timestep       0
##fix                  shakeH all shake 0.0001 20 500 m 1.0079
velocity             all create 0.0 12345678 dist uniform
thermo               100
dump                 1 all custom 1000 ${sname}.heat.lammpstrj id type xu yu zu vx vy vz
dump                 1 all custom 1000 combined_mc.heat.lammpstrj id type xu yu zu vx vy vz
fix                  4 all nvt temp 1.0 300.0 100.0
run                  10000
PPPM initialization ...
  using 12-bit tables for long-range coulomb (src/kspace.cpp:342)
  G vector (1/distance) = 0.14809026
  grid = 3 3 3
  stencil order = 5
  estimated absolute RMS force accuracy = 0.031780157
  estimated relative force accuracy = 9.5704998e-05
  using double precision FFTW3
  3d grid and FFT values/proc = 512 27
Generated 28 of 28 mixed pair_coeff terms from geometric mixing rule
Per MPI rank memory allocation (min/avg/max) = 30.66 | 30.66 | 30.66 Mbytes
------------ Step              0 ----- CPU =            0 (sec) -------------
TotEng   =     199.907590 KinEng   =       0.000000 Temp     =       0.000000 
PotEng   =     199.907590 E_bond   =      31.269813 E_angle  =     128.241937 
E_dihed  =      24.473418 E_impro  =       0.498342 E_vdwl   =      18.154659 
E_coul   =      23.396982 E_long   =     -26.127561 Press    =    -234.169121
------------ Step            100 ----- CPU =    0.0137373 (sec) -------------
TotEng   =     199.999917 KinEng   =       0.276543 Temp     =       0.766732 
PotEng   =     199.723373 E_bond   =      31.045266 E_angle  =     127.661049 
E_dihed  =      24.756897 E_impro  =       0.522744 E_vdwl   =      18.392751 
E_coul   =      23.471265 E_long   =     -26.126599 Press    =    -191.509965
------------ Step            200 ----- CPU =    0.0271518 (sec) -------------
TotEng   =     200.107138 KinEng   =       0.746009 Temp     =       2.068353 
PotEng   =     199.361129 E_bond   =      30.856882 E_angle  =     127.170257 
E_dihed  =      25.352658 E_impro  =       0.577561 E_vdwl   =      18.035055 
E_coul   =      23.494788 E_long   =     -26.126072 Press    =    -159.677489
------------ Step            300 ----- CPU =   0.04052128 (sec) -------------
TotEng   =     200.316010 KinEng   =       1.205276 Temp     =       3.341694 
PotEng   =     199.110734 E_bond   =      30.588273 E_angle  =     127.249971 
E_dihed  =      26.171806 E_impro  =       0.648229 E_vdwl   =      17.106852 
E_coul   =      23.471762 E_long   =     -26.126159 Press    =    -110.646023
------------ Step            400 ----- CPU =   0.05377242 (sec) -------------
TotEng   =     200.706255 KinEng   =       1.790361 Temp     =       4.963877 
PotEng   =     198.915894 E_bond   =      30.409328 E_angle  =     127.604290 
E_dihed  =      26.736904 E_impro  =       0.680626 E_vdwl   =      16.140254 
E_coul   =      23.470756 E_long   =     -26.126263 Press    =    -116.869913
------------ Step            500 ----- CPU =   0.06703358 (sec) -------------
TotEng   =     201.349842 KinEng   =       2.690815 Temp     =       7.460436 
PotEng   =     198.659027 E_bond   =      30.403603 E_angle  =     128.179446 
E_dihed  =      26.776072 E_impro  =       0.628756 E_vdwl   =      15.276698 
E_coul   =      23.518027 E_long   =     -26.123575 Press    =    -182.001533
------------ Step            600 ----- CPU =   0.08028084 (sec) -------------
TotEng   =     202.234016 KinEng   =       3.614853 Temp     =      10.022382 
PotEng   =     198.619163 E_bond   =      30.257084 E_angle  =     129.058422 
E_dihed  =      26.603749 E_impro  =       0.529183 E_vdwl   =      14.768976 
E_coul   =      23.522278 E_long   =     -26.120529 Press    =    -157.139625
------------ Step            700 ----- CPU =   0.09430685 (sec) -------------
TotEng   =     203.326293 KinEng   =       4.295288 Temp     =      11.908925 
PotEng   =     199.031005 E_bond   =      30.628518 E_angle  =     129.231747 
E_dihed  =      26.466825 E_impro  =       0.467242 E_vdwl   =      14.845068 
E_coul   =      23.511696 E_long   =     -26.120091 Press    =    -172.182156
------------ Step            800 ----- CPU =    0.1078994 (sec) -------------
TotEng   =     204.617917 KinEng   =       4.914484 Temp     =      13.625682 
PotEng   =     199.703433 E_bond   =      30.672888 E_angle  =     128.833597 
E_dihed  =      26.604373 E_impro  =       0.465872 E_vdwl   =      15.732078 
E_coul   =      23.516807 E_long   =     -26.122182 Press    =     -70.299080
------------ Step            900 ----- CPU =    0.1213418 (sec) -------------
TotEng   =     206.231756 KinEng   =       6.527603 Temp     =      18.098144 
PotEng   =     199.704153 E_bond   =      30.452197 E_angle  =     127.917286 
E_dihed  =      26.814958 E_impro  =       0.459876 E_vdwl   =      16.651567 
E_coul   =      23.532803 E_long   =     -26.124534 Press    =     106.746237
------------ Step           1000 ----- CPU =    0.1355851 (sec) -------------
TotEng   =     208.220170 KinEng   =       9.100425 Temp     =      25.231437 
PotEng   =     199.119745 E_bond   =      31.534137 E_angle  =     127.070188 
E_dihed  =      27.315363 E_impro  =       0.468843 E_vdwl   =      15.369629 
E_coul   =      23.490983 E_long   =     -26.129398 Press    =     -12.386624
------------ Step           1100 ----- CPU =      0.14901 (sec) -------------
TotEng   =     210.497236 KinEng   =      10.905105 Temp     =      30.235014 
PotEng   =     199.592131 E_bond   =      32.954610 E_angle  =     127.217519 
E_dihed  =      27.699320 E_impro  =       0.567338 E_vdwl   =      13.745153 
E_coul   =      23.542885 E_long   =     -26.134694 Press    =    -318.372324
------------ Step           1200 ----- CPU =    0.1631032 (sec) -------------
TotEng   =     212.760539 KinEng   =      12.258667 Temp     =      33.987840 
PotEng   =     200.501872 E_bond   =      32.265236 E_angle  =     128.465445 
E_dihed  =      28.120202 E_impro  =       0.580747 E_vdwl   =      13.678072 
E_coul   =      23.532793 E_long   =     -26.140622 Press    =    -300.327706
------------ Step           1300 ----- CPU =    0.1765171 (sec) -------------
TotEng   =     215.025282 KinEng   =      13.279767 Temp     =      36.818897 
PotEng   =     201.745515 E_bond   =      30.866072 E_angle  =     129.452263 
E_dihed  =      27.966745 E_impro  =       0.533931 E_vdwl   =      15.624337 
E_coul   =      23.445630 E_long   =     -26.143463 Press    =     -38.232822
------------ Step           1400 ----- CPU =    0.1906465 (sec) -------------
TotEng   =     217.312630 KinEng   =      13.121190 Temp     =      36.379234 
PotEng   =     204.191440 E_bond   =      30.717740 E_angle  =     132.479351 
E_dihed  =      27.102370 E_impro  =       0.507511 E_vdwl   =      16.148687 
E_coul   =      23.379891 E_long   =     -26.144110 Press    =      42.809589
------------ Step           1500 ----- CPU =    0.2047499 (sec) -------------
TotEng   =     219.919131 KinEng   =      13.603747 Temp     =      37.717150 
PotEng   =     206.315384 E_bond   =      31.442548 E_angle  =     136.363321 
E_dihed  =      26.941953 E_impro  =       0.516502 E_vdwl   =      13.818091 
E_coul   =      23.383484 E_long   =     -26.150514 Press    =    -179.460099
------------ Step           1600 ----- CPU =    0.2181509 (sec) -------------
TotEng   =     222.725409 KinEng   =      14.181280 Temp     =      39.318394 
PotEng   =     208.544129 E_bond   =      31.658052 E_angle  =     138.494855 
E_dihed  =      26.718120 E_impro  =       0.524595 E_vdwl   =      13.951743 
E_coul   =      23.347842 E_long   =     -26.151078 Press    =    -316.167723
------------ Step           1700 ----- CPU =    0.2322877 (sec) -------------
TotEng   =     225.800409 KinEng   =      17.339574 Temp     =      48.074941 
PotEng   =     208.460835 E_bond   =      29.765479 E_angle  =     139.172445 
E_dihed  =      27.357012 E_impro  =       0.560313 E_vdwl   =      14.517626 
E_coul   =      23.236035 E_long   =     -26.148075 Press    =    -123.441734
------------ Step           1800 ----- CPU =    0.2465097 (sec) -------------
TotEng   =     229.011227 KinEng   =      21.199686 Temp     =      58.777318 
PotEng   =     207.811541 E_bond   =      28.679770 E_angle  =     137.034809 
E_dihed  =      30.245672 E_impro  =       0.614785 E_vdwl   =      14.348835 
E_coul   =      23.039091 E_long   =     -26.151420 Press    =     221.383129
------------ Step           1900 ----- CPU =    0.2605984 (sec) -------------
TotEng   =     231.211398 KinEng   =      28.295260 Temp     =      78.450193 
PotEng   =     202.916138 E_bond   =      29.177383 E_angle  =     135.571668 
E_dihed  =      31.424123 E_impro  =       0.599030 E_vdwl   =       9.270381 
E_coul   =      23.034898 E_long   =     -26.161345 Press    =     146.125180
------------ Step           2000 ----- CPU =    0.2749299 (sec) -------------
TotEng   =     229.379706 KinEng   =      28.435701 Temp     =      78.839574 
PotEng   =     200.944005 E_bond   =      29.072928 E_angle  =     135.276271 
E_dihed  =      34.693855 E_impro  =       0.644464 E_vdwl   =       4.181217 
E_coul   =      23.248352 E_long   =     -26.173081 Press    =    -245.160939
------------ Step           2100 ----- CPU =    0.2889747 (sec) -------------
TotEng   =     224.585052 KinEng   =      23.797733 Temp     =      65.980547 
PotEng   =     200.787319 E_bond   =      27.354977 E_angle  =     135.411513 
E_dihed  =      35.921723 E_impro  =       0.702163 E_vdwl   =       4.304762 
E_coul   =      23.261214 E_long   =     -26.169032 Press    =    -344.953267
------------ Step           2200 ----- CPU =    0.3023548 (sec) -------------
TotEng   =     221.459734 KinEng   =      20.355690 Temp     =      56.437290 
PotEng   =     201.104044 E_bond   =      26.160497 E_angle  =     137.190687 
E_dihed  =      36.681826 E_impro  =       0.716712 E_vdwl   =       3.315608 
E_coul   =      23.201942 E_long   =     -26.163228 Press    =    -259.895789
------------ Step           2300 ----- CPU =    0.3164058 (sec) -------------
TotEng   =     219.879938 KinEng   =      24.302813 Temp     =      67.380910 
PotEng   =     195.577125 E_bond   =      25.785403 E_angle  =     132.444633 
E_dihed  =      33.452707 E_impro  =       0.674968 E_vdwl   =       6.306956 
E_coul   =      23.078983 E_long   =     -26.166526 Press    =     246.103555
------------ Step           2400 ----- CPU =    0.3304291 (sec) -------------
TotEng   =     219.056499 KinEng   =      20.378840 Temp     =      56.501475 
PotEng   =     198.677659 E_bond   =      27.218719 E_angle  =     134.839698 
E_dihed  =      31.850628 E_impro  =       0.735258 E_vdwl   =       7.088471 
E_coul   =      23.105396 E_long   =     -26.160510 Press    =     276.782835
------------ Step           2500 ----- CPU =     0.344513 (sec) -------------
TotEng   =     220.463578 KinEng   =      21.605145 Temp     =      59.901473 
PotEng   =     198.858433 E_bond   =      26.669722 E_angle  =     133.570774 
E_dihed  =      34.106480 E_impro  =       0.754551 E_vdwl   =       6.764767 
E_coul   =      23.156658 E_long   =     -26.164518 Press    =      99.040315
------------ Step           2600 ----- CPU =    0.3587788 (sec) -------------
TotEng   =     223.933486 KinEng   =      23.314153 Temp     =      64.639796 
PotEng   =     200.619333 E_bond   =      24.964498 E_angle  =     134.157188 
E_dihed  =      36.549068 E_impro  =       0.602997 E_vdwl   =       7.414700 
E_coul   =      23.082877 E_long   =     -26.151994 Press    =     146.152936
------------ Step           2700 ----- CPU =    0.3722903 (sec) -------------
TotEng   =     228.435002 KinEng   =      28.505625 Temp     =      79.033442 
PotEng   =     199.929377 E_bond   =      25.802652 E_angle  =     134.664514 
E_dihed  =      35.848514 E_impro  =       0.726272 E_vdwl   =       5.904413 
E_coul   =      23.128413 E_long   =     -26.145403 Press    =      85.207966
------------ Step           2800 ----- CPU =    0.3864354 (sec) -------------
TotEng   =     232.636141 KinEng   =      33.270795 Temp     =      92.245143 
PotEng   =     199.365346 E_bond   =      27.514054 E_angle  =     137.266974 
E_dihed  =      35.600311 E_impro  =       0.846938 E_vdwl   =       1.221191 
E_coul   =      23.054922 E_long   =     -26.139045 Press    =    -458.202312
------------ Step           2900 ----- CPU =    0.4006568 (sec) -------------
TotEng   =     235.312096 KinEng   =      30.648005 Temp     =      84.973310 
PotEng   =     204.664091 E_bond   =      25.996597 E_angle  =     141.088407 
E_dihed  =      36.924673 E_impro  =       0.781328 E_vdwl   =       3.200692 
E_coul   =      22.800475 E_long   =     -26.128081 Press    =    -363.811695
------------ Step           3000 ----- CPU =    0.4145076 (sec) -------------
TotEng   =     238.368805 KinEng   =      30.949017 Temp     =      85.807883 
PotEng   =     207.419788 E_bond   =      25.453151 E_angle  =     143.461468 
E_dihed  =      33.268145 E_impro  =       0.734287 E_vdwl   =       7.697179 
E_coul   =      22.919511 E_long   =     -26.113953 Press    =     362.662308
------------ Step           3100 ----- CPU =    0.4288988 (sec) -------------
TotEng   =     241.787435 KinEng   =      38.763366 Temp     =     107.473602 
PotEng   =     203.024069 E_bond   =      24.617239 E_angle  =     144.095802 
E_dihed  =      32.373866 E_impro  =       0.600317 E_vdwl   =       4.519793 
E_coul   =      22.953546 E_long   =     -26.136493 Press    =     357.393515
------------ Step           3200 ----- CPU =    0.4432175 (sec) -------------
TotEng   =     242.700586 KinEng   =      39.319412 Temp     =     109.015272 
PotEng   =     203.381174 E_bond   =      24.482323 E_angle  =     146.321409 
E_dihed  =      34.784806 E_impro  =       0.681651 E_vdwl   =       0.243815 
E_coul   =      23.021670 E_long   =     -26.154500 Press    =     -31.430222
------------ Step           3300 ----- CPU =    0.4576099 (sec) -------------
TotEng   =     241.211756 KinEng   =      36.800333 Temp     =     102.030984 
PotEng   =     204.411423 E_bond   =      26.058817 E_angle  =     148.039655 
E_dihed  =      34.941192 E_impro  =       0.833165 E_vdwl   =      -2.510929 
E_coul   =      23.203216 E_long   =     -26.153692 Press    =    -332.247389
------------ Step           3400 ----- CPU =    0.4719439 (sec) -------------
TotEng   =     238.774192 KinEng   =      41.274256 Temp     =     114.435187 
PotEng   =     197.499936 E_bond   =      25.901663 E_angle  =     139.712951 
E_dihed  =      34.543239 E_impro  =       0.852195 E_vdwl   =      -0.483185 
E_coul   =      23.133505 E_long   =     -26.160433 Press    =    -170.211754
------------ Step           3500 ----- CPU =     0.486432 (sec) -------------
TotEng   =     234.902363 KinEng   =      37.628843 Temp     =     104.328076 
PotEng   =     197.273520 E_bond   =      25.059845 E_angle  =     136.324162 
E_dihed  =      33.745960 E_impro  =       0.733371 E_vdwl   =       4.723360 
E_coul   =      22.857352 E_long   =     -26.170529 Press    =     208.003365
------------ Step           3600 ----- CPU =    0.5007728 (sec) -------------
TotEng   =     231.964219 KinEng   =      35.698090 Temp     =      98.974953 
PotEng   =     196.266129 E_bond   =      25.400943 E_angle  =     136.370918 
E_dihed  =      30.660499 E_impro  =       0.868131 E_vdwl   =       6.101452 
E_coul   =      23.041655 E_long   =     -26.177468 Press    =     191.336014
------------ Step           3700 ----- CPU =    0.5153758 (sec) -------------
TotEng   =     230.878749 KinEng   =      30.269194 Temp     =      83.923035 
PotEng   =     200.609556 E_bond   =      27.273575 E_angle  =     139.239224 
E_dihed  =      28.685196 E_impro  =       0.856177 E_vdwl   =       7.660263 
E_coul   =      23.076482 E_long   =     -26.181361 Press    =    -305.736806
------------ Step           3800 ----- CPU =    0.5292634 (sec) -------------
TotEng   =     233.284552 KinEng   =      31.554632 Temp     =      87.486984 
PotEng   =     201.729920 E_bond   =      25.316851 E_angle  =     142.204366 
E_dihed  =      33.442645 E_impro  =       0.701684 E_vdwl   =       3.326069 
E_coul   =      22.926575 E_long   =     -26.188269 Press    =    -616.898458
------------ Step           3900 ----- CPU =    0.5438436 (sec) -------------
TotEng   =     238.532743 KinEng   =      37.115150 Temp     =     102.903833 
PotEng   =     201.417593 E_bond   =      25.279901 E_angle  =     138.290864 
E_dihed  =      38.358769 E_impro  =       0.686110 E_vdwl   =       1.973727 
E_coul   =      23.017951 E_long   =     -26.189728 Press    =    -311.031464
------------ Step           4000 ----- CPU =    0.5579684 (sec) -------------
TotEng   =     244.225797 KinEng   =      51.268892 Temp     =     142.145875 
PotEng   =     192.956905 E_bond   =      26.537482 E_angle  =     134.107098 
E_dihed  =      34.080431 E_impro  =       0.569714 E_vdwl   =       0.663087 
E_coul   =      23.192778 E_long   =     -26.193684 Press    =    -581.418490
------------ Step           4100 ----- CPU =     0.572599 (sec) -------------
TotEng   =     246.174519 KinEng   =      51.599936 Temp     =     143.063714 
PotEng   =     194.574582 E_bond   =      25.767594 E_angle  =     134.471613 
E_dihed  =      34.422608 E_impro  =       0.507868 E_vdwl   =       2.551932 
E_coul   =      23.046488 E_long   =     -26.193522 Press    =    -420.460604
------------ Step           4200 ----- CPU =    0.5871028 (sec) -------------
TotEng   =     243.943108 KinEng   =      50.391898 Temp     =     139.714359 
PotEng   =     193.551210 E_bond   =      22.936455 E_angle  =     133.032408 
E_dihed  =      39.734799 E_impro  =       0.401834 E_vdwl   =       0.661491 
E_coul   =      22.977123 E_long   =     -26.192900 Press    =      83.939932
------------ Step           4300 ----- CPU =    0.6016057 (sec) -------------
TotEng   =     239.903453 KinEng   =      44.400629 Temp     =     123.103231 
PotEng   =     195.502824 E_bond   =      22.263733 E_angle  =     132.835650 
E_dihed  =      45.259263 E_impro  =       0.617716 E_vdwl   =      -2.261003 
E_coul   =      22.977686 E_long   =     -26.190221 Press    =      -5.567684
------------ Step           4400 ----- CPU =    0.6163078 (sec) -------------
TotEng   =     237.937294 KinEng   =      39.887400 Temp     =     110.590052 
PotEng   =     198.049894 E_bond   =      20.741921 E_angle  =     137.605581 
E_dihed  =      45.525204 E_impro  =       1.518230 E_vdwl   =      -4.239072 
E_coul   =      23.089507 E_long   =     -26.191478 Press    =     -38.659545
------------ Step           4500 ----- CPU =    0.6309875 (sec) -------------
TotEng   =     239.058586 KinEng   =      44.436363 Temp     =     123.202306 
PotEng   =     194.622223 E_bond   =      21.159126 E_angle  =     136.258479 
E_dihed  =      40.710847 E_impro  =       0.947854 E_vdwl   =      -1.249388 
E_coul   =      22.987206 E_long   =     -26.191901 Press    =     163.306117
------------ Step           4600 ----- CPU =    0.6455752 (sec) -------------
TotEng   =     242.680413 KinEng   =      44.996049 Temp     =     124.754066 
PotEng   =     197.684364 E_bond   =      22.404103 E_angle  =     133.762326 
E_dihed  =      36.228747 E_impro  =       1.096874 E_vdwl   =       7.341536 
E_coul   =      23.043071 E_long   =     -26.192293 Press    =     425.852671
------------ Step           4700 ----- CPU =    0.6600031 (sec) -------------
TotEng   =     247.963612 KinEng   =      48.547613 Temp     =     134.600975 
PotEng   =     199.416000 E_bond   =      23.564697 E_angle  =     139.766203 
E_dihed  =      35.086959 E_impro  =       0.942061 E_vdwl   =       2.849229 
E_coul   =      23.401372 E_long   =     -26.194520 Press    =     -11.721471
------------ Step           4800 ----- CPU =    0.6738476 (sec) -------------
TotEng   =     252.860252 KinEng   =      50.844089 Temp     =     140.968084 
PotEng   =     202.016163 E_bond   =      22.458138 E_angle  =     150.303660 
E_dihed  =      39.518939 E_impro  =       0.702591 E_vdwl   =      -8.138188 
E_coul   =      23.364000 E_long   =     -26.192977 Press    =    -585.949980
------------ Step           4900 ----- CPU =    0.6884248 (sec) -------------
TotEng   =     257.068240 KinEng   =      61.016060 Temp     =     169.170442 
PotEng   =     196.052181 E_bond   =      19.883439 E_angle  =     150.760617 
E_dihed  =      41.408269 E_impro  =       0.453712 E_vdwl   =     -13.395670 
E_coul   =      23.145199 E_long   =     -26.203385 Press    =    -810.605374
------------ Step           5000 ----- CPU =    0.7031325 (sec) -------------
TotEng   =     257.034986 KinEng   =      64.679912 Temp     =     179.328678 
PotEng   =     192.355075 E_bond   =      18.396635 E_angle  =     148.197029 
E_dihed  =      38.078290 E_impro  =       0.950542 E_vdwl   =     -10.168470 
E_coul   =      23.104128 E_long   =     -26.203079 Press    =     -17.885788
------------ Step           5100 ----- CPU =    0.7174298 (sec) -------------
TotEng   =     253.489560 KinEng   =      49.479226 Temp     =     137.183924 
PotEng   =     204.010334 E_bond   =      19.694518 E_angle  =     152.094772 
E_dihed  =      39.681267 E_impro  =       1.649704 E_vdwl   =      -6.409566 
E_coul   =      23.505638 E_long   =     -26.205999 Press    =     -88.643041
------------ Step           5200 ----- CPU =    0.7317479 (sec) -------------
TotEng   =     252.126368 KinEng   =      59.390902 Temp     =     164.664602 
PotEng   =     192.735466 E_bond   =      16.677713 E_angle  =     149.187857 
E_dihed  =      42.168925 E_impro  =       1.427128 E_vdwl   =     -13.977866 
E_coul   =      23.455541 E_long   =     -26.203831 Press    =      -2.284913
------------ Step           5300 ----- CPU =    0.7465361 (sec) -------------
TotEng   =     248.177568 KinEng   =      68.078499 Temp     =     188.751452 
PotEng   =     180.099069 E_bond   =      15.970743 E_angle  =     144.827071 
E_dihed  =      39.792499 E_impro  =       0.497088 E_vdwl   =     -17.802555 
E_coul   =      23.009256 E_long   =     -26.195033 Press    =     -41.927666
------------ Step           5400 ----- CPU =    0.7607951 (sec) -------------
TotEng   =     241.785240 KinEng   =      54.236880 Temp     =     150.374788 
PotEng   =     187.548360 E_bond   =      14.468372 E_angle  =     156.023911 
E_dihed  =      37.803205 E_impro  =       0.368665 E_vdwl   =     -18.002357 
E_coul   =      23.088988 E_long   =     -26.202423 Press    =     723.889965
------------ Step           5500 ----- CPU =    0.7749429 (sec) -------------
TotEng   =     239.176015 KinEng   =      51.712957 Temp     =     143.377069 
PotEng   =     187.463058 E_bond   =      17.669682 E_angle  =     152.548232 
E_dihed  =      39.805223 E_impro  =       0.896686 E_vdwl   =     -20.541475 
E_coul   =      23.282447 E_long   =     -26.197737 Press    =    -231.668761
------------ Step           5600 ----- CPU =    0.7890763 (sec) -------------
TotEng   =     240.123933 KinEng   =      52.812495 Temp     =     146.425600 
PotEng   =     187.311438 E_bond   =      14.306590 E_angle  =     151.695172 
E_dihed  =      43.370649 E_impro  =       1.217270 E_vdwl   =     -20.290183 
E_coul   =      23.206770 E_long   =     -26.194829 Press    =     541.913760
------------ Step           5700 ----- CPU =    0.8034026 (sec) -------------
TotEng   =     244.242545 KinEng   =      64.212007 Temp     =     178.031386 
PotEng   =     180.030537 E_bond   =      14.627632 E_angle  =     150.755066 
E_dihed  =      37.688333 E_impro  =       0.591145 E_vdwl   =     -20.626877 
E_coul   =      23.168318 E_long   =     -26.173079 Press    =     243.878932
------------ Step           5800 ----- CPU =    0.8177777 (sec) -------------
TotEng   =     247.323660 KinEng   =      66.291976 Temp     =     183.798218 
PotEng   =     181.031684 E_bond   =      17.094439 E_angle  =     162.974838 
E_dihed  =      31.464013 E_impro  =       0.929820 E_vdwl   =     -28.782575 
E_coul   =      23.526231 E_long   =     -26.175082 Press    =    -972.911014
------------ Step           5900 ----- CPU =    0.8320519 (sec) -------------
TotEng   =     247.765461 KinEng   =      72.140101 Temp     =     200.012469 
PotEng   =     175.625361 E_bond   =      14.430142 E_angle  =     162.229131 
E_dihed  =      32.313586 E_impro  =       0.490942 E_vdwl   =     -31.186026 
E_coul   =      23.532104 E_long   =     -26.184518 Press    =    -556.003369
------------ Step           6000 ----- CPU =    0.8464628 (sec) -------------
TotEng   =     244.375847 KinEng   =      69.503895 Temp     =     192.703443 
PotEng   =     174.871952 E_bond   =      13.618173 E_angle  =     149.174599 
E_dihed  =      37.231684 E_impro  =       1.310012 E_vdwl   =     -23.449531 
E_coul   =      23.171177 E_long   =     -26.184162 Press    =      65.773308
------------ Step           6100 ----- CPU =    0.8610976 (sec) -------------
TotEng   =     238.921610 KinEng   =      60.880694 Temp     =     168.795134 
PotEng   =     178.040916 E_bond   =      15.696820 E_angle  =     150.268739 
E_dihed  =      33.858006 E_impro  =       0.578973 E_vdwl   =     -19.481401 
E_coul   =      23.285080 E_long   =     -26.165303 Press    =     434.882360
------------ Step           6200 ----- CPU =    0.8746199 (sec) -------------
TotEng   =     235.313728 KinEng   =      68.052467 Temp     =     188.679278 
PotEng   =     167.261261 E_bond   =      14.166766 E_angle  =     142.606193 
E_dihed  =      31.015793 E_impro  =       1.055434 E_vdwl   =     -18.861027 
E_coul   =      23.445957 E_long   =     -26.167856 Press    =     183.961048
------------ Step           6300 ----- CPU =     0.889007 (sec) -------------
TotEng   =     233.989800 KinEng   =      63.223146 Temp     =     175.289712 
PotEng   =     170.766655 E_bond   =      15.602037 E_angle  =     150.705155 
E_dihed  =      33.806262 E_impro  =       0.937248 E_vdwl   =     -27.581173 
E_coul   =      23.457282 E_long   =     -26.160156 Press    =    -577.111860
------------ Step           6400 ----- CPU =    0.9034022 (sec) -------------
TotEng   =     235.414954 KinEng   =      56.368846 Temp     =     156.285783 
PotEng   =     179.046107 E_bond   =      15.006626 E_angle  =     161.990436 
E_dihed  =      38.069877 E_impro  =       0.920151 E_vdwl   =     -34.260984 
E_coul   =      23.470140 E_long   =     -26.150139 Press    =    -589.700314
------------ Step           6500 ----- CPU =    0.9178434 (sec) -------------
TotEng   =     239.120605 KinEng   =      58.113325 Temp     =     161.122450 
PotEng   =     181.007280 E_bond   =      14.681866 E_angle  =     167.223194 
E_dihed  =      37.841769 E_impro  =       1.453038 E_vdwl   =     -37.505456 
E_coul   =      23.459946 E_long   =     -26.147077 Press    =    -605.694370
------------ Step           6600 ----- CPU =    0.9325542 (sec) -------------
TotEng   =     243.428678 KinEng   =      70.619209 Temp     =     195.795711 
PotEng   =     172.809470 E_bond   =      18.331503 E_angle  =     152.246873 
E_dihed  =      30.958050 E_impro  =       0.856484 E_vdwl   =     -26.646263 
E_coul   =      23.217177 E_long   =     -26.154353 Press    =    -327.007404
------------ Step           6700 ----- CPU =    0.9472117 (sec) -------------
TotEng   =     246.848124 KinEng   =      76.620796 Temp     =     212.435448 
PotEng   =     170.227328 E_bond   =      17.563338 E_angle  =     153.865086 
E_dihed  =      27.316575 E_impro  =       0.547120 E_vdwl   =     -26.421604 
E_coul   =      23.477545 E_long   =     -26.120732 Press    =     -42.471370
------------ Step           6800 ----- CPU =    0.9620831 (sec) -------------
TotEng   =     248.240480 KinEng   =      83.011014 Temp     =     230.152685 
PotEng   =     165.229466 E_bond   =      12.166002 E_angle  =     137.955619 
E_dihed  =      32.049531 E_impro  =       0.735367 E_vdwl   =     -14.767844 
E_coul   =      23.201086 E_long   =     -26.110295 Press    =    1233.670686
------------ Step           6900 ----- CPU =    0.9775904 (sec) -------------
TotEng   =     244.630633 KinEng   =      80.961913 Temp     =     224.471438 
PotEng   =     163.668720 E_bond   =      12.940116 E_angle  =     149.893112 
E_dihed  =      32.513241 E_impro  =       1.197128 E_vdwl   =     -29.985291 
E_coul   =      23.216783 E_long   =     -26.106370 Press    =     787.479256
------------ Step           7000 ----- CPU =    0.9929705 (sec) -------------
TotEng   =     238.625927 KinEng   =      82.258703 Temp     =     228.066862 
PotEng   =     156.367224 E_bond   =      16.332198 E_angle  =     144.278691 
E_dihed  =      31.107114 E_impro  =       0.874239 E_vdwl   =     -33.655077 
E_coul   =      23.494711 E_long   =     -26.064652 Press    =    -304.254878
------------ Step           7100 ----- CPU =     1.008003 (sec) -------------
TotEng   =     231.466377 KinEng   =      76.255443 Temp     =     211.422486 
PotEng   =     155.210935 E_bond   =      16.116186 E_angle  =     150.776964 
E_dihed  =      31.068675 E_impro  =       1.123672 E_vdwl   =     -40.989776 
E_coul   =      23.217340 E_long   =     -26.102126 Press    =    -130.122313
------------ Step           7200 ----- CPU =     1.023087 (sec) -------------
TotEng   =     227.650997 KinEng   =      66.176150 Temp     =     183.477081 
PotEng   =     161.474847 E_bond   =      15.801034 E_angle  =     152.484761 
E_dihed  =      29.802989 E_impro  =       0.639611 E_vdwl   =     -34.637772 
E_coul   =      23.494224 E_long   =     -26.109999 Press    =    -703.793639
------------ Step           7300 ----- CPU =     1.038177 (sec) -------------
TotEng   =     229.082910 KinEng   =      63.103623 Temp     =     174.958328 
PotEng   =     165.979287 E_bond   =      13.644714 E_angle  =     159.050926 
E_dihed  =      29.921440 E_impro  =       1.065470 E_vdwl   =     -35.341824 
E_coul   =      23.745573 E_long   =     -26.107012 Press    =      -9.768024
------------ Step           7400 ----- CPU =     1.053224 (sec) -------------
TotEng   =     235.149713 KinEng   =      67.094429 Temp     =     186.023063 
PotEng   =     168.055283 E_bond   =      18.075713 E_angle  =     142.212988 
E_dihed  =      36.562205 E_impro  =       1.129011 E_vdwl   =     -27.497796 
E_coul   =      23.706540 E_long   =     -26.133379 Press    =    -293.213688
------------ Step           7500 ----- CPU =     1.068158 (sec) -------------
TotEng   =     241.734251 KinEng   =      64.348965 Temp     =     178.411110 
PotEng   =     177.385286 E_bond   =      14.469259 E_angle  =     155.558865 
E_dihed  =      38.204882 E_impro  =       0.738128 E_vdwl   =     -29.114640 
E_coul   =      23.673925 E_long   =     -26.145133 Press    =     275.465939
------------ Step           7600 ----- CPU =     1.082914 (sec) -------------
TotEng   =     248.664166 KinEng   =      74.238729 Temp     =     205.831034 
PotEng   =     174.425437 E_bond   =       9.790712 E_angle  =     163.703403 
E_dihed  =      37.867633 E_impro  =       1.262258 E_vdwl   =     -35.838373 
E_coul   =      23.801431 E_long   =     -26.161626 Press    =      60.396106
------------ Step           7700 ----- CPU =     1.097702 (sec) -------------
TotEng   =     255.679153 KinEng   =      77.819710 Temp     =     215.759506 
PotEng   =     177.859442 E_bond   =      15.630302 E_angle  =     154.360570 
E_dihed  =      38.090623 E_impro  =       1.160449 E_vdwl   =     -28.969463 
E_coul   =      23.755770 E_long   =     -26.168808 Press    =      40.556065
------------ Step           7800 ----- CPU =     1.112419 (sec) -------------
TotEng   =     262.140060 KinEng   =      80.468879 Temp     =     223.104475 
PotEng   =     181.671180 E_bond   =      20.732856 E_angle  =     161.209204 
E_dihed  =      36.276239 E_impro  =       1.001614 E_vdwl   =     -35.124593 
E_coul   =      23.703262 E_long   =     -26.127402 Press    =    -506.354409
------------ Step           7900 ----- CPU =     1.127125 (sec) -------------
TotEng   =     267.799522 KinEng   =      88.223825 Temp     =     244.605495 
PotEng   =     179.575698 E_bond   =      11.114843 E_angle  =     162.344637 
E_dihed  =      39.090878 E_impro  =       0.750119 E_vdwl   =     -30.945119 
E_coul   =      23.358698 E_long   =     -26.138359 Press    =     422.077537
------------ Step           8000 ----- CPU =     1.141971 (sec) -------------
TotEng   =     272.727203 KinEng   =      85.891054 Temp     =     238.137758 
PotEng   =     186.836149 E_bond   =      10.786125 E_angle  =     169.354173 
E_dihed  =      38.212384 E_impro  =       1.428396 E_vdwl   =     -30.385075 
E_coul   =      23.583212 E_long   =     -26.143065 Press    =    1288.919844
------------ Step           8100 ----- CPU =     1.156626 (sec) -------------
TotEng   =     278.124674 KinEng   =      81.126474 Temp     =     224.927692 
PotEng   =     196.998200 E_bond   =      24.874046 E_angle  =     163.510117 
E_dihed  =      36.509638 E_impro  =       0.747275 E_vdwl   =     -25.930708 
E_coul   =      23.422804 E_long   =     -26.134972 Press    =   -1293.111620
------------ Step           8200 ----- CPU =     1.171054 (sec) -------------
TotEng   =     284.797020 KinEng   =      90.696089 Temp     =     251.459987 
PotEng   =     194.100931 E_bond   =      16.720969 E_angle  =     164.428208 
E_dihed  =      41.010439 E_impro  =       1.081761 E_vdwl   =     -26.575624 
E_coul   =      23.568348 E_long   =     -26.133170 Press    =    -354.140480
------------ Step           8300 ----- CPU =     1.185352 (sec) -------------
TotEng   =     290.654354 KinEng   =      88.395834 Temp     =     245.082399 
PotEng   =     202.258521 E_bond   =      12.190216 E_angle  =     168.265050 
E_dihed  =      48.065753 E_impro  =       1.607163 E_vdwl   =     -25.642985 
E_coul   =      23.920352 E_long   =     -26.147028 Press    =    1413.698723
------------ Step           8400 ----- CPU =     1.199661 (sec) -------------
TotEng   =     294.784693 KinEng   =     101.997953 Temp     =     282.795037 
PotEng   =     192.786740 E_bond   =      21.187465 E_angle  =     151.885356 
E_dihed  =      50.153985 E_impro  =       1.420375 E_vdwl   =     -29.174957 
E_coul   =      23.454157 E_long   =     -26.139641 Press    =    -880.707625
------------ Step           8500 ----- CPU =     1.213911 (sec) -------------
TotEng   =     294.806399 KinEng   =     103.776513 Temp     =     287.726193 
PotEng   =     191.029886 E_bond   =      13.892713 E_angle  =     163.591402 
E_dihed  =      44.226568 E_impro  =       1.271656 E_vdwl   =     -29.166587 
E_coul   =      23.351642 E_long   =     -26.137508 Press    =      -0.922056
------------ Step           8600 ----- CPU =     1.228063 (sec) -------------
TotEng   =     291.195891 KinEng   =     100.398240 Temp     =     278.359745 
PotEng   =     190.797651 E_bond   =      17.458649 E_angle  =     166.390446 
E_dihed  =      36.531205 E_impro  =       1.401160 E_vdwl   =     -28.530095 
E_coul   =      23.681610 E_long   =     -26.135324 Press    =    -981.259943
------------ Step           8700 ----- CPU =     1.242879 (sec) -------------
TotEng   =     283.274084 KinEng   =      92.362189 Temp     =     256.079341 
PotEng   =     190.911895 E_bond   =      15.150900 E_angle  =     161.422547 
E_dihed  =      32.750444 E_impro  =       1.908771 E_vdwl   =     -17.352998 
E_coul   =      23.167832 E_long   =     -26.135602 Press    =     660.402426
------------ Step           8800 ----- CPU =     1.257254 (sec) -------------
TotEng   =     277.228227 KinEng   =      82.813476 Temp     =     229.605001 
PotEng   =     194.414751 E_bond   =      17.518904 E_angle  =     163.967543 
E_dihed  =      37.223562 E_impro  =       1.739575 E_vdwl   =     -22.932111 
E_coul   =      23.021375 E_long   =     -26.124096 Press    =     570.174213
------------ Step           8900 ----- CPU =     1.271482 (sec) -------------
TotEng   =     276.900374 KinEng   =      85.129815 Temp     =     236.027179 
PotEng   =     191.770559 E_bond   =      22.713374 E_angle  =     151.664286 
E_dihed  =      40.052989 E_impro  =       1.659420 E_vdwl   =     -21.614022 
E_coul   =      23.407523 E_long   =     -26.113011 Press    =   -1455.155080
------------ Step           9000 ----- CPU =     1.285904 (sec) -------------
TotEng   =     279.941320 KinEng   =      87.285653 Temp     =     242.004361 
PotEng   =     192.655667 E_bond   =      22.427613 E_angle  =     155.468561 
E_dihed  =      37.057207 E_impro  =       1.164614 E_vdwl   =     -20.528170 
E_coul   =      23.188334 E_long   =     -26.122492 Press    =    -674.250197
------------ Step           9100 ----- CPU =     1.300215 (sec) -------------
TotEng   =     284.655112 KinEng   =      98.741257 Temp     =     273.765666 
PotEng   =     185.913855 E_bond   =      18.740322 E_angle  =     149.957976 
E_dihed  =      38.090544 E_impro  =       1.311246 E_vdwl   =     -19.446483 
E_coul   =      23.401491 E_long   =     -26.141241 Press    =     -37.913000
------------ Step           9200 ----- CPU =      1.31414 (sec) -------------
TotEng   =     288.266833 KinEng   =      94.553398 Temp     =     262.154592 
PotEng   =     193.713434 E_bond   =      20.265847 E_angle  =     164.565522 
E_dihed  =      38.431280 E_impro  =       0.689393 E_vdwl   =     -27.854715 
E_coul   =      23.747510 E_long   =     -26.131403 Press    =   -1419.119382
------------ Step           9300 ----- CPU =     1.328411 (sec) -------------
TotEng   =     291.378600 KinEng   =      91.973179 Temp     =     255.000789 
PotEng   =     199.405421 E_bond   =      21.658042 E_angle  =     159.179764 
E_dihed  =      37.575208 E_impro  =       1.576165 E_vdwl   =     -17.923593 
E_coul   =      23.507980 E_long   =     -26.168145 Press    =    -354.743895
------------ Step           9400 ----- CPU =     1.342703 (sec) -------------
TotEng   =     297.060320 KinEng   =      95.411831 Temp     =     264.534646 
PotEng   =     201.648489 E_bond   =      20.352113 E_angle  =     151.474760 
E_dihed  =      44.654653 E_impro  =       0.659092 E_vdwl   =     -12.738728 
E_coul   =      23.394076 E_long   =     -26.147476 Press    =     638.264683
------------ Step           9500 ----- CPU =     1.357705 (sec) -------------
TotEng   =     303.222450 KinEng   =     100.538372 Temp     =     278.748268 
PotEng   =     202.684077 E_bond   =      21.075619 E_angle  =     152.155315 
E_dihed  =      45.444566 E_impro  =       1.096942 E_vdwl   =     -14.403998 
E_coul   =      23.460493 E_long   =     -26.144859 Press    =     165.353979
------------ Step           9600 ----- CPU =     1.372798 (sec) -------------
TotEng   =     308.742904 KinEng   =      96.287288 Temp     =     266.961898 
PotEng   =     212.455616 E_bond   =      18.834835 E_angle  =     166.007392 
E_dihed  =      52.762277 E_impro  =       1.748197 E_vdwl   =     -24.336663 
E_coul   =      23.604766 E_long   =     -26.165187 Press    =     657.150333
------------ Step           9700 ----- CPU =     1.386989 (sec) -------------
TotEng   =     314.361660 KinEng   =      92.259823 Temp     =     255.795528 
PotEng   =     222.101836 E_bond   =      20.563467 E_angle  =     174.245897 
E_dihed  =      52.214816 E_impro  =       1.091087 E_vdwl   =     -23.130293 
E_coul   =      23.287767 E_long   =     -26.170904 Press    =    -385.819200
------------ Step           9800 ----- CPU =      1.40123 (sec) -------------
TotEng   =     319.833744 KinEng   =     108.887142 Temp     =     301.895699 
PotEng   =     210.946602 E_bond   =      17.282332 E_angle  =     173.551226 
E_dihed  =      46.940452 E_impro  =       1.970935 E_vdwl   =     -26.054142 
E_coul   =      23.427369 E_long   =     -26.171569 Press    =    -203.153317
------------ Step           9900 ----- CPU =     1.415508 (sec) -------------
TotEng   =     320.993584 KinEng   =     114.502009 Temp     =     317.463234 
PotEng   =     206.491575 E_bond   =      21.148934 E_angle  =     178.878314 
E_dihed  =      41.846102 E_impro  =       2.696222 E_vdwl   =     -35.122431 
E_coul   =      23.197645 E_long   =     -26.153212 Press    =    -407.761454
------------ Step          10000 ----- CPU =     1.429922 (sec) -------------
TotEng   =     318.222301 KinEng   =     124.791401 Temp     =     345.991148 
PotEng   =     193.430900 E_bond   =      27.344186 E_angle  =     162.269906 
E_dihed  =      30.074751 E_impro  =       1.270278 E_vdwl   =     -24.228651 
E_coul   =      22.840116 E_long   =     -26.139685 Press    =    -877.695301
Loop time of 1.42994 on 1 procs for 10000 steps with 122 atoms

Performance: 302.111 ns/day, 0.079 hours/ns, 6993.316 timesteps/s, 853.185 katom-step/s
99.6% CPU use with 1 MPI tasks x 1 OpenMP threads

MPI task timing breakdown:
Section |  min time  |  avg time  |  max time  |%varavg| %total
---------------------------------------------------------------
Pair    | 0.61085    | 0.61085    | 0.61085    |   0.0 | 42.72
Bond    | 0.30225    | 0.30225    | 0.30225    |   0.0 | 21.14
Kspace  | 0.39925    | 0.39925    | 0.39925    |   0.0 | 27.92
Neigh   | 0.045687   | 0.045687   | 0.045687   |   0.0 |  3.20
Comm    | 0.041978   | 0.041978   | 0.041978   |   0.0 |  2.94
Output  | 0.0035609  | 0.0035609  | 0.0035609  |   0.0 |  0.25
Modify  | 0.020053   | 0.020053   | 0.020053   |   0.0 |  1.40
Other   |            | 0.006312   |            |       |  0.44

Nlocal:            122 ave         122 max         122 min
Histogram: 1 0 0 0 0 0 0 0 0 0
Nghost:           1122 ave        1122 max        1122 min
Histogram: 1 0 0 0 0 0 0 0 0 0
Neighs:           5975 ave        5975 max        5975 min
Histogram: 1 0 0 0 0 0 0 0 0 0

Total # of neighbors = 5975
Ave neighs/atom = 48.97541
Ave special neighs/atom = 10.967213
Neighbor list builds = 87
Dangerous builds = 0
unfix                4
undump               1

print                .
.
print                ================================================
================================================
print                "NPT dynamics with an isotropic pressure of 1atm."
NPT dynamics with an isotropic pressure of 1atm.
print                ================================================
================================================
print                .
.

fix                  2 all nvt temp ${rtemp} ${rtemp} 100.0
fix                  2 all nvt temp 298 ${rtemp} 100.0
fix                  2 all nvt temp 298 298 100.0
thermo               100
dump                 1 all custom 100 ${sname}.npt.lammpstrj id type xu yu zu vx vy vz
dump                 1 all custom 100 combined_mc.npt.lammpstrj id type xu yu zu vx vy vz
run                  10000 # run for 15 ns
PPPM initialization ...
  using 12-bit tables for long-range coulomb (src/kspace.cpp:342)
  G vector (1/distance) = 0.14809026
  grid = 3 3 3
  stencil order = 5
  estimated absolute RMS force accuracy = 0.031780157
  estimated relative force accuracy = 9.5704998e-05
  using double precision FFTW3
  3d grid and FFT values/proc = 512 27
Generated 28 of 28 mixed pair_coeff terms from geometric mixing rule
Per MPI rank memory allocation (min/avg/max) = 30.66 | 30.66 | 30.66 Mbytes
------------ Step          10000 ----- CPU =            0 (sec) -------------
TotEng   =     318.222301 KinEng   =     124.791401 Temp     =     345.991148 
PotEng   =     193.430900 E_bond   =      27.344186 E_angle  =     162.269906 
E_dihed  =      30.074751 E_impro  =       1.270278 E_vdwl   =     -24.228651 
E_coul   =      22.840116 E_long   =     -26.139685 Press    =    -877.695301
------------ Step          10100 ----- CPU =    0.0145343 (sec) -------------
TotEng   =     315.137112 KinEng   =     102.218892 Temp     =     283.407603 
PotEng   =     212.918220 E_bond   =      23.342218 E_angle  =     186.300770 
E_dihed  =      33.269562 E_impro  =       3.432496 E_vdwl   =     -30.226193 
E_coul   =      22.945970 E_long   =     -26.146603 Press    =     700.494034
------------ Step          10200 ----- CPU =   0.02903433 (sec) -------------
TotEng   =     311.039732 KinEng   =      89.462269 Temp     =     248.039151 
PotEng   =     221.577463 E_bond   =      18.505882 E_angle  =     183.010894 
E_dihed  =      35.759712 E_impro  =       1.403732 E_vdwl   =     -14.327734 
E_coul   =      23.367535 E_long   =     -26.142559 Press    =     986.116512
------------ Step          10300 ----- CPU =   0.04337907 (sec) -------------
TotEng   =     311.673691 KinEng   =      94.707205 Temp     =     262.581030 
PotEng   =     216.966486 E_bond   =      22.523152 E_angle  =     187.481275 
E_dihed  =      35.789899 E_impro  =       0.904521 E_vdwl   =     -27.001509 
E_coul   =      23.420456 E_long   =     -26.151308 Press    =     120.919400
------------ Step          10400 ----- CPU =   0.05770344 (sec) -------------
TotEng   =     320.371053 KinEng   =     106.198735 Temp     =     294.441941 
PotEng   =     214.172318 E_bond   =      24.061390 E_angle  =     186.900738 
E_dihed  =      36.684360 E_impro  =       1.653538 E_vdwl   =     -32.466548 
E_coul   =      23.481813 E_long   =     -26.142972 Press    =    -641.193331
------------ Step          10500 ----- CPU =   0.07184553 (sec) -------------
TotEng   =     332.729116 KinEng   =     111.027257 Temp     =     307.829289 
PotEng   =     221.701858 E_bond   =      21.434797 E_angle  =     197.998386 
E_dihed  =      42.878248 E_impro  =       1.816483 E_vdwl   =     -39.593170 
E_coul   =      23.325630 E_long   =     -26.158514 Press    =    -934.112503
------------ Step          10600 ----- CPU =    0.0860505 (sec) -------------
TotEng   =     341.007559 KinEng   =     125.423537 Temp     =     347.743782 
PotEng   =     215.584022 E_bond   =      18.474579 E_angle  =     185.252159 
E_dihed  =      44.582100 E_impro  =       2.643306 E_vdwl   =     -32.635983 
E_coul   =      23.414686 E_long   =     -26.146825 Press    =     211.177127
------------ Step          10700 ----- CPU =    0.1014635 (sec) -------------
TotEng   =     343.025045 KinEng   =     116.023115 Temp     =     321.680585 
PotEng   =     227.001930 E_bond   =      17.493695 E_angle  =     182.920572 
E_dihed  =      48.157446 E_impro  =       2.204617 E_vdwl   =     -21.355380 
E_coul   =      23.739312 E_long   =     -26.158333 Press    =    1536.299421
------------ Step          10800 ----- CPU =     0.115787 (sec) -------------
TotEng   =     342.869950 KinEng   =     110.314756 Temp     =     305.853840 
PotEng   =     232.555194 E_bond   =      31.012355 E_angle  =     181.350190 
E_dihed  =      51.624333 E_impro  =       1.634585 E_vdwl   =     -30.605857 
E_coul   =      23.707942 E_long   =     -26.168352 Press    =   -1831.525528
------------ Step          10900 ----- CPU =    0.1301626 (sec) -------------
TotEng   =     339.918348 KinEng   =     123.267134 Temp     =     341.765034 
PotEng   =     216.651214 E_bond   =      18.401322 E_angle  =     189.013577 
E_dihed  =      39.748179 E_impro  =       2.023582 E_vdwl   =     -29.933171 
E_coul   =      23.565857 E_long   =     -26.168132 Press    =     676.254052
------------ Step          11000 ----- CPU =    0.1449829 (sec) -------------
TotEng   =     328.993296 KinEng   =     122.966874 Temp     =     340.932544 
PotEng   =     206.026422 E_bond   =      21.201666 E_angle  =     168.847677 
E_dihed  =      38.905908 E_impro  =       1.365997 E_vdwl   =     -21.544859 
E_coul   =      23.413063 E_long   =     -26.163031 Press    =     111.243204
------------ Step          11100 ----- CPU =    0.1592384 (sec) -------------
TotEng   =     320.271613 KinEng   =     117.757618 Temp     =     326.489591 
PotEng   =     202.513995 E_bond   =      30.436715 E_angle  =     162.800046 
E_dihed  =      39.288029 E_impro  =       1.643151 E_vdwl   =     -28.774636 
E_coul   =      23.268067 E_long   =     -26.147376 Press    =    -673.498714
------------ Step          11200 ----- CPU =    0.1734527 (sec) -------------
TotEng   =     315.694135 KinEng   =      95.560446 Temp     =     264.946689 
PotEng   =     220.133688 E_bond   =      13.951941 E_angle  =     186.475779 
E_dihed  =      32.927748 E_impro  =       1.114777 E_vdwl   =     -11.313909 
E_coul   =      23.116897 E_long   =     -26.139544 Press    =    2353.681329
------------ Step          11300 ----- CPU =    0.1876193 (sec) -------------
TotEng   =     314.928210 KinEng   =      86.861997 Temp     =     240.829753 
PotEng   =     228.066212 E_bond   =      33.710289 E_angle  =     179.213683 
E_dihed  =      35.530407 E_impro  =       1.262441 E_vdwl   =     -18.748309 
E_coul   =      23.238767 E_long   =     -26.141066 Press    =   -1811.261527
------------ Step          11400 ----- CPU =     0.201134 (sec) -------------
TotEng   =     318.895235 KinEng   =     112.106631 Temp     =     310.821914 
PotEng   =     206.788604 E_bond   =      21.456883 E_angle  =     165.132116 
E_dihed  =      41.498235 E_impro  =       4.030803 E_vdwl   =     -22.195258 
E_coul   =      23.017117 E_long   =     -26.151291 Press    =      69.911530
------------ Step          11500 ----- CPU =    0.2152927 (sec) -------------
TotEng   =     323.413088 KinEng   =     113.507779 Temp     =     314.706674 
PotEng   =     209.905310 E_bond   =      25.596014 E_angle  =     171.494081 
E_dihed  =      36.499155 E_impro  =       1.015792 E_vdwl   =     -21.689039 
E_coul   =      23.128617 E_long   =     -26.139310 Press    =     237.927342
------------ Step          11600 ----- CPU =      0.22953 (sec) -------------
TotEng   =     325.322015 KinEng   =     109.559729 Temp     =     303.760486 
PotEng   =     215.762286 E_bond   =      34.389130 E_angle  =     167.377094 
E_dihed  =      35.234528 E_impro  =       2.900946 E_vdwl   =     -21.044758 
E_coul   =      23.056794 E_long   =     -26.151448 Press    =    -765.350303
------------ Step          11700 ----- CPU =      0.24379 (sec) -------------
TotEng   =     324.470323 KinEng   =     114.797138 Temp     =     318.281494 
PotEng   =     209.673185 E_bond   =      25.369080 E_angle  =     168.132509 
E_dihed  =      36.904288 E_impro  =       1.234888 E_vdwl   =     -18.934409 
E_coul   =      23.094616 E_long   =     -26.127786 Press    =    1020.881503
------------ Step          11800 ----- CPU =    0.2580478 (sec) -------------
TotEng   =     319.874656 KinEng   =     109.958269 Temp     =     304.865460 
PotEng   =     209.916387 E_bond   =      23.856323 E_angle  =     178.549851 
E_dihed  =      35.014653 E_impro  =       2.502270 E_vdwl   =     -27.147578 
E_coul   =      23.298586 E_long   =     -26.157719 Press    =     440.293978
------------ Step          11900 ----- CPU =    0.2722566 (sec) -------------
TotEng   =     313.238152 KinEng   =      96.758720 Temp     =     268.268971 
PotEng   =     216.479432 E_bond   =      29.040172 E_angle  =     169.215595 
E_dihed  =      35.000792 E_impro  =       2.918322 E_vdwl   =     -16.999852 
E_coul   =      23.433370 E_long   =     -26.128967 Press    =    -332.124881
------------ Step          12000 ----- CPU =    0.2864121 (sec) -------------
TotEng   =     305.527220 KinEng   =      97.402903 Temp     =     270.055003 
PotEng   =     208.124318 E_bond   =      33.135145 E_angle  =     168.210265 
E_dihed  =      37.819931 E_impro  =       1.157362 E_vdwl   =     -29.272444 
E_coul   =      23.192949 E_long   =     -26.118891 Press    =    -247.073045
------------ Step          12100 ----- CPU =    0.3005265 (sec) -------------
TotEng   =     298.048997 KinEng   =      94.871753 Temp     =     263.037248 
PotEng   =     203.177245 E_bond   =      24.968077 E_angle  =     155.023805 
E_dihed  =      42.550178 E_impro  =       1.479630 E_vdwl   =     -17.883429 
E_coul   =      23.179410 E_long   =     -26.140426 Press    =    -486.814822
------------ Step          12200 ----- CPU =    0.3146519 (sec) -------------
TotEng   =     295.170537 KinEng   =      90.948759 Temp     =     252.160528 
PotEng   =     204.221778 E_bond   =      20.118136 E_angle  =     172.803320 
E_dihed  =      39.771564 E_impro  =       1.042979 E_vdwl   =     -26.705390 
E_coul   =      23.329322 E_long   =     -26.138154 Press    =     167.684242
------------ Step          12300 ----- CPU =    0.3286983 (sec) -------------
TotEng   =     300.343168 KinEng   =     108.224203 Temp     =     300.057663 
PotEng   =     192.118966 E_bond   =      22.262970 E_angle  =     155.788137 
E_dihed  =      36.233174 E_impro  =       1.470150 E_vdwl   =     -20.712734 
E_coul   =      23.219068 E_long   =     -26.141800 Press    =     204.709685
------------ Step          12400 ----- CPU =    0.3428046 (sec) -------------
TotEng   =     309.516226 KinEng   =     101.236765 Temp     =     280.684601 
PotEng   =     208.279461 E_bond   =      29.168251 E_angle  =     161.610514 
[...]
------------ Step          15400 ----- CPU =    0.7847261 (sec) -------------
TotEng   =     334.835455 KinEng   =     129.390957 Temp     =     358.743674 
PotEng   =     205.444499 E_bond   =      24.401115 E_angle  =     168.319586 
E_dihed  =      40.530109 E_impro  =       2.322252 E_vdwl   =     -27.366126 
E_coul   =      23.431927 E_long   =     -26.194364 Press    =     372.523059
------------ Step          15500 ----- CPU =    0.7997359 (sec) -------------
TotEng   =     337.639112 KinEng   =     112.987771 Temp     =     313.264924 
PotEng   =     224.651340 E_bond   =      24.009018 E_angle  =     191.152307 
E_dihed  =      43.737070 E_impro  =       2.340833 E_vdwl   =     -33.769069 
E_coul   =      23.397766 E_long   =     -26.216585 Press    =    1862.839874
------------ Step          15600 ----- CPU =    0.8147466 (sec) -------------
TotEng   =     337.554344 KinEng   =     113.263891 Temp     =     314.030480 
PotEng   =     224.290453 E_bond   =      26.870693 E_angle  =     180.915536 
E_dihed  =      45.331807 E_impro  =       2.785016 E_vdwl   =     -28.800588 
E_coul   =      23.368595 E_long   =     -26.180606 Press    =    -565.975362
------------ Step          15700 ----- CPU =    0.8304723 (sec) -------------
TotEng   =     335.701553 KinEng   =     110.164849 Temp     =     305.438214 
PotEng   =     225.536703 E_bond   =      30.704835 E_angle  =     179.936412 
E_dihed  =      49.892277 E_impro  =       3.723809 E_vdwl   =     -35.965117 
E_coul   =      23.423742 E_long   =     -26.179254 Press    =   -1289.793200
------------ Step          15800 ----- CPU =    0.8456687 (sec) -------------
TotEng   =     330.386940 KinEng   =     115.023126 Temp     =     318.908059 
PotEng   =     215.363814 E_bond   =      27.584672 E_angle  =     164.142167 
E_dihed  =      53.695003 E_impro  =       3.004419 E_vdwl   =     -30.322172 
E_coul   =      23.416895 E_long   =     -26.157170 Press    =    1190.844582
------------ Step          15900 ----- CPU =    0.8609501 (sec) -------------
TotEng   =     317.307837 KinEng   =     102.410579 Temp     =     283.939065 
PotEng   =     214.897258 E_bond   =      23.012791 E_angle  =     175.531880 
E_dihed  =      46.197349 E_impro  =       2.060116 E_vdwl   =     -29.380908 
E_coul   =      23.634356 E_long   =     -26.158326 Press    =     751.706750
------------ Step          16000 ----- CPU =    0.8756469 (sec) -------------
TotEng   =     310.251929 KinEng   =     106.257435 Temp     =     294.604690 
PotEng   =     203.994494 E_bond   =      23.766587 E_angle  =     165.221254 
E_dihed  =      43.213876 E_impro  =       1.978084 E_vdwl   =     -28.159961 
E_coul   =      24.135796 E_long   =     -26.161142 Press    =   -1005.478331
------------ Step          16100 ----- CPU =    0.8912356 (sec) -------------
TotEng   =     308.043936 KinEng   =      99.026831 Temp     =     274.557436 
PotEng   =     209.017104 E_bond   =      22.880066 E_angle  =     182.477918 
E_dihed  =      41.955844 E_impro  =       2.579070 E_vdwl   =     -38.539457 
E_coul   =      23.828001 E_long   =     -26.164339 Press    =      36.338921
------------ Step          16200 ----- CPU =    0.9068108 (sec) -------------
TotEng   =     308.603756 KinEng   =     111.191807 Temp     =     308.285513 
PotEng   =     197.411949 E_bond   =      21.848815 E_angle  =     182.872559 
E_dihed  =      34.223695 E_impro  =       2.610346 E_vdwl   =     -41.457978 
E_coul   =      23.485548 E_long   =     -26.171037 Press    =     -97.257630
------------ Step          16300 ----- CPU =    0.9223516 (sec) -------------
TotEng   =     307.006088 KinEng   =     120.759990 Temp     =     334.813836 
PotEng   =     186.246097 E_bond   =      23.385513 E_angle  =     179.267401 
E_dihed  =      30.724180 E_impro  =       2.613429 E_vdwl   =     -47.151428 
E_coul   =      23.572928 E_long   =     -26.165927 Press    =   -1099.366012
------------ Step          16400 ----- CPU =    0.9377933 (sec) -------------
TotEng   =     300.043361 KinEng   =     102.657143 Temp     =     284.622679 
PotEng   =     197.386218 E_bond   =      21.518392 E_angle  =     186.683217 
E_dihed  =      28.997608 E_impro  =       2.809206 E_vdwl   =     -39.750888 
E_coul   =      23.309570 E_long   =     -26.180888 Press    =     923.350221
------------ Step          16500 ----- CPU =    0.9533408 (sec) -------------
TotEng   =     292.086740 KinEng   =      97.772624 Temp     =     271.080077 
PotEng   =     194.314116 E_bond   =      24.380683 E_angle  =     167.198424 
E_dihed  =      31.689413 E_impro  =       1.712811 E_vdwl   =     -27.100118 
E_coul   =      22.610233 E_long   =     -26.177332 Press    =      93.055679
------------ Step          16600 ----- CPU =     0.968334 (sec) -------------
TotEng   =     289.206383 KinEng   =     103.338636 Temp     =     286.512155 
PotEng   =     185.867747 E_bond   =      18.809193 E_angle  =     167.463866 
E_dihed  =      31.573027 E_impro  =       2.346009 E_vdwl   =     -31.003981 
E_coul   =      22.861119 E_long   =     -26.181486 Press    =     467.208284
------------ Step          16700 ----- CPU =    0.9840926 (sec) -------------
TotEng   =     289.486389 KinEng   =     103.068536 Temp     =     285.763288 
PotEng   =     186.417853 E_bond   =      23.143525 E_angle  =     184.961660 
E_dihed  =      29.009087 E_impro  =       2.975815 E_vdwl   =     -49.928546 
E_coul   =      22.440771 E_long   =     -26.184458 Press    =    -740.696222
------------ Step          16800 ----- CPU =     1.000341 (sec) -------------
TotEng   =     293.196933 KinEng   =     101.927205 Temp     =     282.598886 
PotEng   =     191.269727 E_bond   =      27.740803 E_angle  =     176.469250 
E_dihed  =      32.873674 E_impro  =       4.898281 E_vdwl   =     -47.097599 
E_coul   =      22.563916 E_long   =     -26.178598 Press    =    -980.570042
------------ Step          16900 ----- CPU =     1.015845 (sec) -------------
TotEng   =     306.978077 KinEng   =      95.292618 Temp     =     264.204121 
PotEng   =     211.685459 E_bond   =      26.468613 E_angle  =     189.381272 
E_dihed  =      40.649268 E_impro  =       3.123757 E_vdwl   =     -44.403905 
E_coul   =      22.633949 E_long   =     -26.167495 Press    =    -423.877757
------------ Step          17000 ----- CPU =     1.032326 (sec) -------------
TotEng   =     320.115501 KinEng   =     114.141921 Temp     =     316.464869 
PotEng   =     205.973580 E_bond   =      29.000894 E_angle  =     176.235046 
E_dihed  =      42.240581 E_impro  =       2.676918 E_vdwl   =     -40.652672 
E_coul   =      22.644609 E_long   =     -26.171796 Press    =     519.789127
------------ Step          17100 ----- CPU =      1.04869 (sec) -------------
TotEng   =     323.243321 KinEng   =     126.346938 Temp     =     350.303963 
PotEng   =     196.896383 E_bond   =      22.995764 E_angle  =     180.089176 
E_dihed  =      40.448840 E_impro  =       2.489395 E_vdwl   =     -45.708012 
E_coul   =      22.765849 E_long   =     -26.184629 Press    =   -1136.909772
------------ Step          17200 ----- CPU =     1.064249 (sec) -------------
TotEng   =     319.984748 KinEng   =     135.313407 Temp     =     375.163999 
PotEng   =     184.671341 E_bond   =      19.325123 E_angle  =     170.021267 
E_dihed  =      41.652356 E_impro  =       2.716176 E_vdwl   =     -45.951172 
E_coul   =      23.110960 E_long   =     -26.203368 Press    =     617.149411
------------ Step          17300 ----- CPU =     1.080269 (sec) -------------
TotEng   =     307.581662 KinEng   =     121.085672 Temp     =     335.716807 
PotEng   =     186.495990 E_bond   =      30.093482 E_angle  =     163.565815 
E_dihed  =      35.845078 E_impro  =       1.830205 E_vdwl   =     -41.634647 
E_coul   =      23.010552 E_long   =     -26.214496 Press    =    -219.786206
------------ Step          17400 ----- CPU =     1.096486 (sec) -------------
TotEng   =     296.229760 KinEng   =     119.714397 Temp     =     331.914871 
PotEng   =     176.515363 E_bond   =      23.147925 E_angle  =     160.063780 
E_dihed  =      35.558090 E_impro  =       2.398201 E_vdwl   =     -41.664097 
E_coul   =      23.229881 E_long   =     -26.218417 Press    =    1161.250659
------------ Step          17500 ----- CPU =     1.112524 (sec) -------------
TotEng   =     287.373100 KinEng   =     103.448932 Temp     =     286.817959 
PotEng   =     183.924168 E_bond   =      26.578036 E_angle  =     163.610182 
E_dihed  =      37.905590 E_impro  =       1.549131 E_vdwl   =     -42.535340 
E_coul   =      23.042543 E_long   =     -26.225974 Press    =     511.696590
------------ Step          17600 ----- CPU =     1.127906 (sec) -------------
TotEng   =     282.382833 KinEng   =      98.549771 Temp     =     273.234759 
PotEng   =     183.833062 E_bond   =      28.656766 E_angle  =     161.491929 
E_dihed  =      35.232996 E_impro  =       2.411830 E_vdwl   =     -40.767111 
E_coul   =      23.039339 E_long   =     -26.232687 Press    =    -629.629524
------------ Step          17700 ----- CPU =     1.144065 (sec) -------------
TotEng   =     280.435043 KinEng   =     104.656638 Temp     =     290.166391 
PotEng   =     175.778405 E_bond   =      23.917137 E_angle  =     175.753176 
E_dihed  =      34.897234 E_impro  =       2.551494 E_vdwl   =     -58.468643 
E_coul   =      23.363046 E_long   =     -26.235039 Press    =    -778.087177
------------ Step          17800 ----- CPU =     1.160102 (sec) -------------
TotEng   =     279.151045 KinEng   =     111.509655 Temp     =     309.166763 
PotEng   =     167.641391 E_bond   =      27.073841 E_angle  =     160.445107 
E_dihed  =      38.520831 E_impro  =       2.118538 E_vdwl   =     -57.357306 
E_coul   =      23.086974 E_long   =     -26.246594 Press    =   -1338.363817
------------ Step          17900 ----- CPU =     1.176465 (sec) -------------
TotEng   =     277.744136 KinEng   =     101.606741 Temp     =     281.710379 
PotEng   =     176.137395 E_bond   =      30.455463 E_angle  =     151.533991 
E_dihed  =      43.093494 E_impro  =       2.892908 E_vdwl   =     -49.116698 
E_coul   =      23.526699 E_long   =     -26.248462 Press    =     406.914305
------------ Step          18000 ----- CPU =     1.192601 (sec) -------------
TotEng   =     276.846595 KinEng   =     102.744568 Temp     =     284.865068 
PotEng   =     174.102028 E_bond   =      24.559251 E_angle  =     166.738679 
E_dihed  =      39.034831 E_impro  =       2.558972 E_vdwl   =     -55.469391 
E_coul   =      22.929762 E_long   =     -26.250077 Press    =    1284.143471
------------ Step          18100 ----- CPU =     1.208586 (sec) -------------
TotEng   =     277.030334 KinEng   =     107.501441 Temp     =     298.053765 
PotEng   =     169.528893 E_bond   =      23.057751 E_angle  =     165.916334 
E_dihed  =      32.617677 E_impro  =       2.742839 E_vdwl   =     -51.514627 
E_coul   =      22.957042 E_long   =     -26.248124 Press    =    -261.063236
------------ Step          18200 ----- CPU =     1.224768 (sec) -------------
TotEng   =     278.686649 KinEng   =     106.077772 Temp     =     294.106564 
PotEng   =     172.608877 E_bond   =      24.580154 E_angle  =     174.855081 
E_dihed  =      32.502310 E_impro  =       2.530295 E_vdwl   =     -58.531189 
E_coul   =      22.912916 E_long   =     -26.240690 Press    =    -594.694361
------------ Step          18300 ----- CPU =     1.240864 (sec) -------------
TotEng   =     285.174955 KinEng   =      96.580860 Temp     =     267.775843 
PotEng   =     188.594095 E_bond   =      22.454077 E_angle  =     187.174661 
E_dihed  =      37.881340 E_impro  =       2.756157 E_vdwl   =     -57.631356 
E_coul   =      22.166306 E_long   =     -26.207090 Press    =     190.172942
------------ Step          18400 ----- CPU =     1.257026 (sec) -------------
TotEng   =     296.294559 KinEng   =     121.801852 Temp     =     337.702455 
PotEng   =     174.492707 E_bond   =      19.054026 E_angle  =     176.913556 
E_dihed  =      37.627635 E_impro  =       4.069060 E_vdwl   =     -59.544383 
E_coul   =      22.598236 E_long   =     -26.225423 Press    =     521.682630
------------ Step          18500 ----- CPU =     1.274396 (sec) -------------
TotEng   =     301.824939 KinEng   =     118.296859 Temp     =     327.984666 
PotEng   =     183.528080 E_bond   =      32.806864 E_angle  =     166.564382 
E_dihed  =      39.438498 E_impro  =       3.275478 E_vdwl   =     -54.885915 
E_coul   =      22.557635 E_long   =     -26.228861 Press    =    -336.959191
------------ Step          18600 ----- CPU =      1.31308 (sec) -------------
TotEng   =     302.037027 KinEng   =     118.405082 Temp     =     328.284720 
PotEng   =     183.631945 E_bond   =      27.048549 E_angle  =     175.815805 
E_dihed  =      40.093288 E_impro  =       1.675120 E_vdwl   =     -57.303659 
E_coul   =      22.542254 E_long   =     -26.239410 Press    =     198.822441
------------ Step          18700 ----- CPU =     1.329436 (sec) -------------
TotEng   =     297.080236 KinEng   =     113.416900 Temp     =     314.454707 
PotEng   =     183.663337 E_bond   =      24.681520 E_angle  =     184.048125 
E_dihed  =      42.833410 E_impro  =       1.681488 E_vdwl   =     -65.855688 
E_coul   =      22.510327 E_long   =     -26.235846 Press    =    -285.297726
------------ Step          18800 ----- CPU =     1.345709 (sec) -------------
TotEng   =     288.675439 KinEng   =     116.221067 Temp     =     322.229417 
PotEng   =     172.454372 E_bond   =      25.523741 E_angle  =     169.005148 
E_dihed  =      33.611114 E_impro  =       1.871968 E_vdwl   =     -54.098596 
E_coul   =      22.782894 E_long   =     -26.241897 Press    =      46.624150
------------ Step          18900 ----- CPU =     1.362034 (sec) -------------
TotEng   =     282.290034 KinEng   =     109.637372 Temp     =     303.975753 
PotEng   =     172.652663 E_bond   =      24.921048 E_angle  =     171.449612 
E_dihed  =      35.310211 E_impro  =       1.031472 E_vdwl   =     -56.594530 
E_coul   =      22.776466 E_long   =     -26.241616 Press    =    1842.040235
------------ Step          19000 ----- CPU =     1.378362 (sec) -------------
TotEng   =     279.957664 KinEng   =      99.292357 Temp     =     275.293622 
PotEng   =     180.665307 E_bond   =      28.096194 E_angle  =     173.122508 
E_dihed  =      41.903047 E_impro  =       1.396701 E_vdwl   =     -60.469749 
E_coul   =      22.844629 E_long   =     -26.228024 Press    =     234.062104
------------ Step          19100 ----- CPU =     1.394769 (sec) -------------
TotEng   =     282.093301 KinEng   =     105.068834 Temp     =     291.309228 
PotEng   =     177.024466 E_bond   =      27.063054 E_angle  =     157.670408 
E_dihed  =      42.681061 E_impro  =       2.128810 E_vdwl   =     -49.420224 
E_coul   =      23.117399 E_long   =     -26.216042 Press    =    -838.156870
------------ Step          19200 ----- CPU =     1.410982 (sec) -------------
TotEng   =     285.894836 KinEng   =     105.552229 Temp     =     292.649466 
PotEng   =     180.342607 E_bond   =      23.107734 E_angle  =     181.596345 
E_dihed  =      39.251531 E_impro  =       1.282451 E_vdwl   =     -61.582337 
E_coul   =      22.924652 E_long   =     -26.237770 Press    =     670.349189
------------ Step          19300 ----- CPU =     1.427453 (sec) -------------
TotEng   =     290.798862 KinEng   =      97.881911 Temp     =     271.383081 
PotEng   =     192.916951 E_bond   =      27.815784 E_angle  =     182.394102 
E_dihed  =      44.048086 E_impro  =       1.832149 E_vdwl   =     -59.894119 
E_coul   =      22.959105 E_long   =     -26.238155 Press    =    -791.902954
------------ Step          19400 ----- CPU =     1.443835 (sec) -------------
TotEng   =     295.456564 KinEng   =      99.746897 Temp     =     276.553857 
PotEng   =     195.709668 E_bond   =      31.435346 E_angle  =     177.842131 
E_dihed  =      47.064241 E_impro  =       1.689509 E_vdwl   =     -59.143982 
E_coul   =      23.053701 E_long   =     -26.231278 Press    =    -835.143584
------------ Step          19500 ----- CPU =     1.459773 (sec) -------------
TotEng   =     298.766686 KinEng   =     112.059943 Temp     =     310.692467 
PotEng   =     186.706743 E_bond   =      30.416996 E_angle  =     167.396873 
E_dihed  =      41.714850 E_impro  =       1.422173 E_vdwl   =     -50.937688 
E_coul   =      22.918178 E_long   =     -26.224638 Press    =    1972.102099
------------ Step          19600 ----- CPU =     1.476136 (sec) -------------
TotEng   =     299.604138 KinEng   =     111.269194 Temp     =     308.500071 
PotEng   =     188.334944 E_bond   =      25.812345 E_angle  =     179.674273 
E_dihed  =      39.935381 E_impro  =       1.554245 E_vdwl   =     -55.206358 
E_coul   =      22.795682 E_long   =     -26.230623 Press    =     300.317505
------------ Step          19700 ----- CPU =     1.493171 (sec) -------------
TotEng   =     299.194051 KinEng   =     110.594624 Temp     =     306.629790 
PotEng   =     188.599427 E_bond   =      24.430520 E_angle  =     168.734464 
E_dihed  =      39.039722 E_impro  =       1.443293 E_vdwl   =     -41.489650 
E_coul   =      22.658454 E_long   =     -26.217376 Press    =    1210.094050
------------ Step          19800 ----- CPU =     1.508877 (sec) -------------
TotEng   =     296.301068 KinEng   =     124.336080 Temp     =     344.728745 
PotEng   =     171.964988 E_bond   =      30.587056 E_angle  =     168.040998 
E_dihed  =      33.697964 E_impro  =       2.076278 E_vdwl   =     -58.969004 
E_coul   =      22.743286 E_long   =     -26.211590 Press    =   -1615.101101
------------ Step          19900 ----- CPU =     1.525147 (sec) -------------
TotEng   =     286.974511 KinEng   =     109.818417 Temp     =     304.477712 
PotEng   =     177.156094 E_bond   =      23.587273 E_angle  =     184.764981 
E_dihed  =      35.459569 E_impro  =       0.996115 E_vdwl   =     -64.104298 
E_coul   =      22.664195 E_long   =     -26.211741 Press    =    1259.880865
------------ Step          20000 ----- CPU =     1.541433 (sec) -------------
TotEng   =     277.572288 KinEng   =      93.683108 Temp     =     259.741663 
PotEng   =     183.889180 E_bond   =      27.023017 E_angle  =     178.527121 
E_dihed  =      39.378642 E_impro  =       0.761053 E_vdwl   =     -58.667954 
E_coul   =      23.061787 E_long   =     -26.194485 Press    =    -915.684683
Loop time of 1.54145 on 1 procs for 10000 steps with 122 atoms

Performance: 280.256 ns/day, 0.086 hours/ns, 6487.402 timesteps/s, 791.463 katom-step/s
98.1% CPU use with 1 MPI tasks x 1 OpenMP threads

MPI task timing breakdown:
Section |  min time  |  avg time  |  max time  |%varavg| %total
---------------------------------------------------------------
Pair    | 0.67405    | 0.67405    | 0.67405    |   0.0 | 43.73
Bond    | 0.30328    | 0.30328    | 0.30328    |   0.0 | 19.67
Kspace  | 0.40143    | 0.40143    | 0.40143    |   0.0 | 26.04
Neigh   | 0.050142   | 0.050142   | 0.050142   |   0.0 |  3.25
Comm    | 0.040765   | 0.040765   | 0.040765   |   0.0 |  2.64
Output  | 0.045381   | 0.045381   | 0.045381   |   0.0 |  2.94
Modify  | 0.020169   | 0.020169   | 0.020169   |   0.0 |  1.31
Other   |            | 0.006234   |            |       |  0.40

Nlocal:            122 ave         122 max         122 min
Histogram: 1 0 0 0 0 0 0 0 0 0
Nghost:           1002 ave        1002 max        1002 min
Histogram: 1 0 0 0 0 0 0 0 0 0
Neighs:           7470 ave        7470 max        7470 min
Histogram: 1 0 0 0 0 0 0 0 0 0

Total # of neighbors = 7470
Ave neighs/atom = 61.229508
Ave special neighs/atom = 10.967213
Neighbor list builds = 99
Dangerous builds = 0
unfix                2
undump               1

fix                  2 oleic freeze
ERROR: Could not find fix group ID oleic (src/modify.cpp:839)
Last command: fix                  2 oleic freeze
