ITEM: TIMESTEP
10000
ITEM: NUMBER OF ATOMS
122
ITEM: BOX BOUNDS pp pp pp
0.0000000000000000e+00 2.0000000000000000e+01
0.0000000000000000e+00 2.0000000000000000e+01
0.0000000000000000e+00 2.0000000000000000e+01
ITEM: ATOMS id type xu yu zu vx vy vz
31 5 2.40639 3.59305 4.67046 0.000124914 0.00182622 0.000381092
33 5 1.90526 5.4601 3.28086 0.00534244 -0.000999362 0.000130592
8 3 2.71071 3.53539 3.60753 -0.00192476 -0.00017705 0.000438652
32 5 3.60197 4.12024 3.65964 -0.0028571 0.00154452 0.0012193
9 3 1.78156 4.50313 2.78691 -0.000591346 -0.000495596 0.0029157
34 5 0.743775 4.2781 3.07491 0.000706241 0.00461025 0.0102701
41 5 1.12287 5.74441 1.33775 -0.00500969 -0.0124693 0.00155697
13 3 1.75277 4.84483 1.23641 -0.000838222 -0.00595166 0.00212347
35 5 3.54382 2.05618 2.13837 -0.00435143 0.00217457 -0.0031934
10 3 3.18027 2.08322 3.16383 -0.000412936 0.000796115 -0.000396466
36 5 4.10951 1.86606 3.70244 -0.000586813 0.0038879 0.00378012
42 5 1.085 4.06425 0.856243 0.00379214 -0.00844879 0.00328156
14 3 2.29589 0.808687 3.41795 0.00268758 -0.00118338 -0.000418751
43 5 2.80378 0.00276115 2.93231 0.00982442 0.00202951 -0.000455083
44 5 2.2741 0.438064 4.47616 3.48371e-05 -0.00408643 -0.00163778
17 4 0.872388 0.849064 3.00923 0.00172621 0.00149437 0.00240412
48 5 0.332235 0.90623 3.86909 0.00396173 -0.00216128 0.00464839
46 5 3.77255 5.83259 0.664312 -0.00229342 -0.000307765 0.000306866
16 3 2.98863 5.17002 0.207653 -0.00310672 0.00046461 0.00157567
47 5 3.59554 4.30252 0.00334194 -0.00328743 0.0016152 -0.00191176
15 4 0.0924283 0.752691 1.81598 -0.00312536 0.00332417 0.00408644
38 5 1.38334 0.736079 0.0980296 -0.00560489 0.00689615 0.00609384
11 3 0.362044 0.418672 0.364604 -0.00533688 0.00395935 0.00217739
95 6 8.8484 6.10479 5.42507 0.00104615 0.00576296 -0.0112862
45 5 -0.911422 0.942227 1.99442 -0.00414084 -0.00458407 0.0033815
99 6 11.8328 9.54048 2.94067 0.0114866 0.00638989 0.00951291
96 6 9.38268 8.96919 2.79939 -0.00848674 0.0128787 -0.00164739
100 6 10.8868 10.8226 1.27365 -0.0030148 -0.00395395 0.0010894
73 1 12.1553 12.2512 2.35534 -0.00629037 -0.000938948 -0.00786667
103 6 13.0784 11.6723 2.38925 -0.00668394 0.00139298 0.009896
98 6 11.4439 10.7221 4.2308 -0.000290134 0.0127457 -0.00209805
70 1 9.78883 9.50191 3.66078 -0.000547742 0.00600025 0.000119827
97 6 9.03699 10.1753 4.0698 0.00768862 0.0141112 0.00258533
71 1 11.0913 10.2563 3.30667 0.00334673 0.00295715 0.00178258
72 1 10.9111 11.3367 2.23305 0.000241665 -0.00186733 -0.000697677
74 1 12.2217 13.3225 1.23476 -0.000276885 0.00789336 -0.0074425
101 6 9.99509 11.9118 2.37981 -0.00263334 -0.00853039 -0.00350316
102 6 12.0746 12.7986 3.29798 -0.0184827 0.00583231 -0.0117095
67 3 8.39602 6.83501 5.97384 0.000887405 0.00147839 -0.00604886
68 3 8.90254 8.12161 5.90161 0.000472546 0.00106997 -0.00325034
69 5 10.3468 8.33897 4.92386 0.00215964 0.00510535 -0.00339848
28 5 1.00549 -1.6856 0.0484983 -0.00277504 0.0101252 0.00606419
105 6 13.1753 13.8461 1.31736 -0.00110723 0.0112908 -0.012353
104 6 11.4242 14.0497 1.35679 -0.00156112 0.00544928 -0.00760227
50 5 -0.278397 -3.60729 4.27676 -0.00165395 0.00437271 0.00324654
49 5 -0.662118 -2.37805 3.26196 0.000328039 0.0113056 -0.00390942
40 5 -0.0527832 -4.3381 2.30225 0.00273579 0.00294586 0.00335838
54 6 -3.8216 -1.95437 5.01728 0.0122151 0.0247242 0.00987538
1 1 -3.09739 -2.16239 4.38691 0.000771332 0.00429629 0.00352668
20 4 -2.19721 -3.14113 4.62403 -0.00283339 -0.00209787 3.63016e-05
2 2 -2.24895 -3.78383 5.70072 -0.00361953 -0.00212069 0.000768672
26 5 -3.70402 -3.02232 1.34645 -0.00398266 -0.00728823 0.000321977
22 5 -2.27432 -1.47036 0.601827 -0.00166319 -0.00160411 -0.00532321
30 5 -1.56134 -5.26341 0.713949 -0.00442046 -0.00967287 -0.0037245
5 3 -2.82109 -3.43612 0.716153 -9.28065e-05 -0.00203947 -0.00168277
29 5 -2.95923 -5.05948 1.87889 -0.00395508 0.00255638 0.000790444
18 3 -1.08806 -3.30385 3.66645 0.0017437 0.00588545 -0.000194321
7 3 -2.05806 -4.57505 1.45552 3.30785e-05 -0.00269992 -0.000596366
39 5 -1.24297 -5.45885 3.19133 0.00201389 0.00100713 0.00205598
12 3 -1.0825 -4.47124 2.66436 0.00224395 0.00287689 0.00105447
121 6 4.69638 1.23163 10.3997 -0.00318993 0.000285031 -0.000276512
122 6 2.95917 1.38471 9.98956 -0.00308599 -0.000282195 0.00802773
85 1 3.70978 1.4932 10.7735 -0.000973486 0.00198051 0.00462908
55 1 3.40931 0.585632 11.9559 -0.00268676 -0.00347846 0.00130113
91 6 5.36946 2.56929 12.6272 0.00174282 -0.00113523 -0.00211505
120 6 6.09814 3.01091 10.1669 -0.0034216 -0.00726317 -0.0119946
57 1 4.29402 2.73862 12.6884 0.00177286 -0.00178571 0.00597861
90 6 4.06469 3.61058 13.3029 0.0048973 -0.00570427 0.0133502
58 2 3.67911 2.82669 11.3728 -0.00062586 0.00432731 0.00565558
59 3 4.20689 3.84652 10.6054 0.00290917 0.00278477 0.00241649
84 3 5.47124 3.80055 10.016 -0.000120731 -0.00309065 -0.0046317
56 1 3.56683 1.49386 13.1754 0.00477784 -0.00678939 0.00178426
83 3 5.93269 4.85257 9.22922 0.000372646 -0.00204681 -0.00238634
60 3 3.38599 4.93198 10.3683 0.00491788 0.00674812 0.00756065
92 6 2.43296 4.96038 10.738 0.00914074 0.012344 0.0213213
87 6 2.38208 0.224706 11.906 -0.00404125 -0.000122639 0.00363107
61 3 3.86484 5.94569 9.55579 0.00317289 0.00265921 7.49145e-05
62 3 5.14314 5.98252 9.00174 0.00126123 -0.00196152 -0.0034181
119 6 6.88056 4.79584 8.87033 0.000295574 -0.00454967 -0.00388547
94 6 6.99577 5.52002 6.73647 0.00302424 -0.0036957 -0.00360138
66 3 7.29059 6.49182 6.7527 0.00219661 -0.00338334 -0.00522834
63 3 5.50717 7.1846 8.35719 0.0026216 -0.00321067 -0.00464811
64 4 4.83799 8.16506 8.75654 0.00350402 -0.000592158 -0.00905538
93 6 3.19341 6.68058 9.35114 0.00290409 0.00321679 0.00151002
65 3 6.58492 7.44645 7.48332 0.0013139 -0.0050795 -0.00644098
118 6 6.57515 9.53318 7.80376 -0.00374528 -0.00562448 -0.0108696
82 3 7.05965 8.75757 7.35476 -0.00165939 -0.00533784 -0.00861781
81 3 8.259 9.05973 6.70399 -0.000650651 -0.00201038 -0.00365783
117 6 8.63794 10.0041 6.7812 -0.00222652 -0.00201039 -0.003609
86 6 4.11086 -0.248778 11.9765 -0.00513818 -0.00521139 -0.00223245
89 6 4.11629 0.997302 13.9743 0.00540094 -0.00900927 -7.16964e-05
88 6 2.57468 1.79215 13.5142 0.00405003 -0.0113554 0.00418162
53 5 3.60694 5.93483 -1.7666 -0.000746797 -0.000797918 0.00465859
19 3 2.70835 5.47378 -1.3525 -0.00129885 -0.00100699 0.00154692
52 5 2.51938 4.55462 -1.96964 0.00498788 -0.0057759 0.00542028
51 5 1.95148 6.21438 -1.66721 -0.002879 -0.00259234 -0.00498378
37 5 -0.41061 1.06663 -0.0626302 -0.00642781 -0.000468075 -0.00060271
107 6 11.0546 12.4611 -0.419052 0.0219011 -0.026864 -0.0113059
106 6 12.7263 11.891 -0.32279 0.0265582 0.00765373 0.00826242
75 1 12.0773 12.7611 -0.199506 0.0109963 -0.00353848 -0.00171123
111 6 11.7737 12.8278 -2.92395 -0.00514638 -0.010769 -0.0190656
110 6 13.5183 12.8233 -2.74251 -0.0084107 -0.0167124 -0.0155934
6 3 0.275291 -0.997535 -0.390916 -0.00241368 0.0057815 -0.000433366
27 5 0.739809 -0.745319 -1.34786 -0.00212113 0.00708229 0.000189958
76 1 12.5055 13.8723 -1.16517 -0.00782808 -0.00781222 -0.0115013
77 1 12.6289 13.4414 -2.6336 -0.00569608 -0.0104124 -0.0112883
78 1 12.8155 14.6653 -3.56088 0.00268943 -0.00971862 -0.00175617
108 6 11.7262 14.6274 -1.07987 -0.0248377 -0.0223247 -0.0158738
112 6 13.2488 15.4869 -2.98637 0.00856538 -0.00984352 -0.00872602
116 7 9.96194 13.4868 -4.7364 6.89565e-05 -0.00647139 -0.00704021
80 5 11.0236 13.8914 -5.48186 0.00256751 -0.00267766 -0.00312194
115 6 11.6095 16.0705 -4.69285 0.0211454 -0.0111024 -0.00786521
79 1 11.4814 15.0929 -4.22801 0.00103681 -0.00522505 -0.000618208
114 6 10.7059 15.1422 -3.46386 -0.00358955 -0.00196428 -0.0030664
113 6 13.455 14.3584 -4.39411 -0.00836618 -0.00974583 -0.00108273
25 5 -3.30122 -4.08943 -0.0353884 0.00731927 -0.00037028 -0.00634944
21 5 -2.96042 -1.99884 -0.804907 0.00438569 0.00616445 -0.000546612
3 3 -2.18771 -2.22681 -0.0872811 0.00111522 -0.00104783 -0.00309998
109 6 13.4575 14.3128 -0.871032 -0.0209149 0.012587 -0.00774764
23 5 -0.38928 -2.75356 -1.35191 0.00285681 -0.0013521 0.00550677
24 5 -1.4257 -1.41111 -1.84235 0.00279783 0.0024922 -0.00382341
4 3 -0.925322 -1.88361 -0.952164 0.00229096 0.000984336 -0.00250688
ITEM: TIMESTEP
10100
ITEM: NUMBER OF ATOMS
122
ITEM: BOX BOUNDS pp pp pp
0.0000000000000000e+00 2.0000000000000000e+01
0.0000000000000000e+00 2.0000000000000000e+01
0.0000000000000000e+00 2.0000000000000000e+01
ITEM: ATOMS id type xu yu zu vx vy vz
31 5 2.35414 3.63958 4.66381 -0.00052264 0.000290659 0.001191
33 5 2.14947 5.50519 3.37544 0.00302592 0.00289382 0.00200498
8 3 2.76575 3.59459 3.64749 0.00199045 0.00016235 0.0015899
32 5 3.75202 4.12442 3.68183 0.00467837 -0.00255653 0.00020377
9 3 1.83692 4.56733 2.90468 0.00359556 0.00313798 0.000797207
34 5 0.846829 4.39472 3.34687 0.00346837 0.000566218 0.000161188
41 5 0.815252 5.34504 1.30717 -0.00843761 -0.000259461 -0.0022694
13 3 1.658 4.69318 1.3325 -0.00395161 0.00364753 0.00133317
35 5 3.55108 2.01393 2.32808 0.00662019 -0.00178633 0.00425356
10 3 3.11115 2.10689 3.27179 0.000119547 0.00010624 0.000684855
36 5 3.99623 2.03608 3.8815 -0.00233488 -0.000308383 0.00479461
42 5 1.14893 3.83066 1.01904 -0.00101778 0.000399079 0.00424579
14 3 2.35236 0.73277 3.29533 -0.000849258 0.00126057 -0.00136493
43 5 3.0463 0.0353645 2.7833 -0.00348795 0.000504888 -0.00571404
44 5 2.41539 0.378893 4.29948 0.00517452 -0.000863046 -0.000949444
17 4 0.873397 0.664337 3.05297 0.000148104 0.00255133 -0.000920437
48 5 0.361555 0.874896 3.9201 -0.000165385 -0.00225015 -0.00355259
46 5 3.41473 5.95386 0.494496 -0.00881005 0.00520967 -0.0021896
16 3 2.78635 5.10069 0.249338 -0.00238764 -0.00209626 0.0016361
47 5 3.40589 4.24826 0.0198865 -0.00254992 -0.00457667 0.0048912
15 4 -0.0282098 0.640362 1.95791 -0.00208202 0.00398531 0.00208108
38 5 0.957464 0.910919 0.147367 -0.00422675 -0.00295409 -0.00239245
11 3 0.0299531 0.544531 0.452622 -0.00539251 0.00437011 0.00242079
95 6 9.00767 5.93966 5.18864 0.00341635 0.00196007 -0.00917869
45 5 -0.937898 0.903024 2.33032 -6.13737e-05 0.000716722 0.0078424
99 6 11.8509 9.76557 3.14859 0.00307124 0.00774623 0.00520204
96 6 9.29981 9.39628 2.96107 0.00159268 0.0072279 0.00090704
100 6 10.8601 10.7704 1.2101 -0.00275301 0.00844273 -0.00885155
73 1 12.0908 12.4011 2.07214 0.00347396 0.00473297 -0.0037955
103 6 13.0852 11.9507 2.10912 0.00297915 -0.000268795 -0.0114074
98 6 11.4309 11.1147 4.1766 -0.000429189 0.0143651 -0.00677177
70 1 9.83765 9.80682 3.81518 0.000689203 0.00332293 0.00258424
97 6 9.24062 10.5761 4.2997 0.00384282 0.00715287 0.000626958
71 1 11.0855 10.5142 3.33842 0.00021588 0.00448553 -0.000214095
72 1 10.9258 11.3956 2.09817 0.000359205 0.00266557 -0.00354193
74 1 11.9739 13.2338 0.849935 -0.00752612 -0.00688725 -0.00648612
101 6 10.0098 11.978 2.2036 0.00550486 0.00953522 0.00868502
102 6 11.9652 13.0789 2.91235 0.00758798 0.00581716 -0.00443387
67 3 8.47506 6.67133 5.66049 0.000636919 -0.001873 -0.00608601
68 3 8.84056 8.00597 5.54632 -0.000985933 -0.00248338 -0.00517513
69 5 10.3742 8.49852 4.94841 0.00140443 0.00181781 -0.000188105
28 5 0.981378 -1.3115 0.324545 0.0015211 0.00284161 0.00341831
105 6 12.4589 14.1741 1.10192 -0.0243093 0.00225782 -0.00739337
104 6 10.9125 13.4315 0.674141 -0.012658 -0.0259064 -0.00669543
50 5 -0.256027 -3.35052 4.44787 0.00217224 0.00533951 0.0010669
49 5 -0.861141 -2.28641 3.30855 -0.00362176 -0.000682391 0.00118662
40 5 -0.0231503 -4.37528 2.22386 0.00211139 0.000378086 -0.00782253
54 6 -3.80583 -1.8324 5.11313 -0.0088138 0.0102928 -0.0173854
1 1 -3.05183 -1.88729 4.48632 0.00376503 0.00716061 -0.00208026
20 4 -2.24391 -2.96363 4.56275 -0.0068939 -0.00111296 -0.00131479
2 2 -2.44728 -3.84276 5.41519 -0.00733462 -0.00168161 -0.00230587
26 5 -3.49703 -3.41168 1.00905 0.0034735 -0.00222122 -0.00902026
22 5 -2.6897 -1.35756 0.660743 -0.00880465 0.00405303 0.00403274
30 5 -1.85918 -5.43762 0.862178 -0.000255977 0.000401072 0.00641643
5 3 -2.65745 -3.55058 0.393844 0.00268076 -0.00221326 -0.00774494
29 5 -2.91118 -5.02848 1.922 0.00228494 0.00233773 0.00343636
18 3 -1.07884 -3.19013 3.73886 -0.00354714 -0.00087724 0.00182692
7 3 -2.06695 -4.55233 1.44329 -0.00085492 0.00174746 0.000459821
39 5 -1.01114 -5.1615 3.20867 0.00365547 0.00269837 0.000491824
12 3 -1.0259 -4.28404 2.61442 0.00136369 0.00316703 -0.00369637
121 6 4.36799 1.2431 10.2924 -0.00695277 0.00461567 -0.00210438
122 6 2.62813 1.61687 10.2838 -0.00756355 0.00579583 0.00555343
85 1 3.52483 1.56667 10.9018 -0.00492898 0.001041 0.00229418
55 1 3.30088 0.572782 12.0654 -0.00287834 -0.000336945 0.000133028
91 6 5.49623 2.45151 12.6946 0.00723801 0.00157504 0.00199632
120 6 6.05224 2.96627 10.0523 -0.00145936 0.000236754 0.00142288
57 1 4.42478 2.57127 12.8492 0.00718821 0.000877508 0.000421943
90 6 4.23985 3.36426 13.5755 0.00595849 0.000698643 -7.41804e-05
58 2 3.76321 2.86987 11.5554 0.00350292 -0.00241706 0.00301577
59 3 4.31384 3.89435 10.7165 -0.000160254 -0.000887761 0.00152333
84 3 5.47849 3.80196 9.95202 -0.000779125 0.000253431 0.000705135
56 1 3.83342 1.24046 13.343 0.00625424 0.000965659 -0.00160768
83 3 5.89354 4.78346 9.02919 0.00153185 -0.00355804 -0.00165334
60 3 3.60445 5.06797 10.528 0.00258514 0.00217463 0.00153349
92 6 2.71408 5.18814 11.0105 0.00299427 0.00464731 0.000506803
87 6 2.23155 0.398148 12.1828 -0.00351246 0.0086918 0.00795655
61 3 4.08416 6.10683 9.71734 0.00756826 0.00214611 0.00326515
62 3 5.23307 6.01088 8.90401 0.00390321 -0.00206698 0.00059304
119 6 6.73833 4.59052 8.50366 0.0010075 -0.00445245 -0.00115872
94 6 7.08426 5.37151 6.47401 0.0039866 -0.00454651 -0.00256293
66 3 7.3859 6.34099 6.45884 0.0014503 -0.00372232 -0.00255533
63 3 5.65674 7.11954 8.1211 -0.000343739 0.00013524 -0.0017846
64 4 4.93926 8.13997 8.21745 -0.0019934 0.000669726 -0.00914608
93 6 3.53014 6.96258 9.72334 0.00832709 0.00231048 0.000181966
65 3 6.73962 7.31133 7.23365 -0.00213301 -0.00317944 -0.00470635
118 6 6.82244 9.37377 7.73152 0.000868135 -0.00173719 -0.00654811
82 3 7.18012 8.62739 7.13614 -0.000156745 -0.00292853 -0.0058522
81 3 8.15351 8.97946 6.2389 0.00124858 -0.00266482 -0.00493376
117 6 8.43689 9.95249 6.22026 0.00157705 -0.00246603 -0.0062053
86 6 3.81295 -0.372523 11.8806 -0.0122557 -0.0049057 -0.00430862
89 6 4.59432 0.617551 13.8146 0.00976426 0.00052939 -0.0078822
88 6 3.02135 1.42833 14.0471 0.0119725 -0.000651241 0.00508513
53 5 3.61676 5.87023 -1.48394 -0.000414175 0.000770618 0.00556592
19 3 2.66463 5.38154 -1.25061 0.000515751 -0.00412963 0.00181705
52 5 2.78272 4.44519 -1.75497 0.00291763 -0.00218252 -0.0005484
51 5 1.83799 5.9784 -1.65909 -0.00160724 -0.00612893 0.00390537
37 5 -0.569587 1.29937 -0.087756 -0.00614447 0.00498185 0.0021927
107 6 12.2286 11.6327 -0.566854 0.0128888 0.000361618 -0.00271194
106 6 13.7052 12.6444 -0.318349 0.00870458 0.0182775 0.00662794
75 1 12.6178 12.6437 -0.40504 0.00668423 0.0025321 -0.00261499
111 6 11.7428 12.4285 -3.18871 0.00833651 -0.00612734 -0.0067107
110 6 13.466 12.4465 -2.68051 0.00436173 -0.00111918 0.00739634
6 3 0.218101 -0.803198 -0.257443 -0.00199694 0.00382977 0.00595714
27 5 0.69351 -0.437859 -1.18063 0.000576774 0.00348914 0.0059338
76 1 12.1232 13.6165 -1.51604 -0.00668217 -0.00729575 -0.00189049
77 1 12.5662 13.0448 -2.83922 0.00464567 -0.00646397 -0.00107881
78 1 12.8798 14.0811 -3.9046 0.00214475 -0.00938208 -0.0122182
108 6 11.0334 13.672 -1.57337 -0.00571366 -0.0175564 -0.0139965
112 6 13.6534 14.7666 -3.56923 0.00554723 -0.0117262 -0.0125693
116 7 10.1764 13.1346 -4.92069 0.00313436 -0.0166827 -0.0132929
80 5 11.057 13.7771 -5.738 -0.0023069 -0.00187308 -0.00746854
115 6 12.0085 15.7668 -4.85586 0.00732253 -0.00574531 -0.00197416
79 1 11.667 14.8337 -4.40468 0.00784167 -0.00725734 -0.00421571
114 6 10.9253 15.0622 -3.63988 0.00713989 0.00605251 -0.0082387
113 6 13.302 13.55 -4.75055 8.09581e-05 -0.0236325 -0.013813
25 5 -3.14446 -4.11289 -0.41646 0.000335577 -0.00305393 -0.00961863
21 5 -2.94735 -1.90138 -0.943693 -0.000794816 -0.00305886 -0.00258543
3 3 -2.27595 -2.08341 -0.0771763 -0.0050025 0.00336799 0.00259531
109 6 12.5319 14.6215 -1.37211 -0.0185798 0.00106497 -0.0132929
23 5 -0.319122 -2.73326 -1.04219 0.00263226 0.00214394 0.0086707
24 5 -1.06144 -1.52746 -1.8074 0.0075148 -0.0039242 0.00330841
4 3 -0.859866 -1.81855 -0.77176 -0.000552999 0.00107925 0.0077668
ITEM: TIMESTEP
10200
ITEM: NUMBER OF ATOMS
122
ITEM: BOX BOUNDS pp pp pp
0.0000000000000000e+00 2.0000000000000000e+01
0.0000000000000000e+00 2.0000000000000000e+01
0.0000000000000000e+00 2.0000000000000000e+01
ITEM: ATOMS id type xu yu zu vx vy vz
31 5 2.5092 3.61703 4.62401 0.00431255 -0.00225612 -0.0023746
33 5 2.13329 5.6348 3.42668 -0.00325564 0.000283553 0.00118579
8 3 2.85835 3.56393 3.60186 0.00333573 -0.000846426 -0.000554865
32 5 3.81965 3.9857 3.74605 0.00226232 0.000986978 0.00131767
9 3 1.93223 4.6658 2.90941 0.00030089 -0.000394744 0.00170593
34 5 0.962569 4.41374 3.2936 -0.000480111 -7.97192e-05 5.7573e-05
41 5 0.618888 5.53491 1.35006 0.00396653 0.00353472 0.00454094
13 3 1.51072 4.83634 1.40027 4.59048e-05 -0.000352998 0.00265928
35 5 4.04129 1.97673 2.43359 0.00905266 -0.00135857 0.00674268
10 3 3.30339 2.07396 3.27542 0.00274071 -0.00122053 0.00176035
36 5 3.88847 1.81824 4.18823 -0.00256767 -0.00484004 0.0031534
42 5 1.1142 3.86937 1.24895 -0.00203176 0.000704252 0.00296732
14 3 2.34535 0.851992 3.27114 -0.000612619 0.0028352 -0.00212408
43 5 2.72662 0.175683 2.55591 -0.00272338 0.00408899 -0.00146468
44 5 2.56102 0.32065 4.21259 -0.000948191 -3.70896e-05 -0.00564115
17 4 0.873365 0.937888 3.09952 -0.00141426 -0.000744314 0.00327759
48 5 0.380979 0.833347 3.95994 0.000635172 0.00368825 0.00781825
46 5 3.10462 6.02736 0.517568 -0.00230955 -0.00116166 0.00127019
16 3 2.64164 5.08682 0.321669 -0.00310365 0.000956091 0.00109091
47 5 3.3595 4.31239 0.443863 0.000360716 0.00875093 0.00751463
15 4 -0.0697025 0.93583 2.05741 5.11695e-05 -0.00053176 0.0018284
38 5 0.930404 0.976723 0.0758749 -0.00334635 0.00951251 -0.000723376
11 3 -0.0196485 0.713387 0.578876 0.000943045 0.000364726 0.00257765
95 6 9.05908 5.9674 5.08041 0.0125635 0.00112987 0.0104796
45 5 -1.0032 1.0271 2.4411 -0.00105837 0.0056175 -0.00421535
99 6 12.1055 9.90344 3.15402 -0.000223715 0.00342903 -0.00773262
96 6 9.49814 9.44408 2.85005 0.00386804 0.00123601 -0.0012037
100 6 10.579 10.9064 1.42704 -0.00275288 0.00806922 0.00331414
73 1 12.0639 12.4272 1.84179 -0.00270189 0.00336237 -0.0039324
103 6 12.9433 11.817 1.65047 -0.00257067 0.00686503 -0.0110566
98 6 11.5411 11.2004 4.27835 0.00589419 -0.00152017 -0.000264628
70 1 9.95652 9.85169 3.75049 0.00414927 -0.0040671 0.000707108
97 6 9.26725 10.5365 4.2385 0.00729253 -0.0027101 0.00173092
71 1 11.2829 10.5757 3.42238 -0.000900617 0.000789176 -6.84122e-05
72 1 10.9189 11.5145 2.26613 -0.000238329 0.00424439 0.003903
74 1 11.669 13.3195 0.608062 -0.00260894 0.00324147 -0.00437311
101 6 10.097 12.1522 2.59075 -0.00529313 -0.00017035 -0.000219533
102 6 12.2693 13.0493 2.71585 0.00782389 0.0018656 -0.00535451
67 3 8.5241 6.67233 5.58988 0.00517011 0.000806953 0.00296287
68 3 8.96381 8.00073 5.57981 -0.00201014 0.00117818 0.000345484
69 5 10.4519 8.48075 4.7864 0.000250785 -0.00540414 -0.00150024
28 5 0.900107 -1.29431 0.451961 -0.00414192 -0.00187775 0.00401843
105 6 11.8275 14.3734 0.85059 -0.00551988 0.00204811 -0.00236514
104 6 10.6244 13.168 0.346356 0.0011221 -0.00101199 -0.0127485
50 5 -0.274689 -3.2599 4.35302 -0.000259852 -0.00190906 -0.00312176
49 5 -0.967919 -2.20512 3.21417 -0.000961671 -0.000968177 -0.00254895
40 5 -0.0026453 -4.16816 2.04556 -0.00248867 0.00253352 0.0074349
54 6 -3.79202 -1.6918 4.65954 0.00192222 0.00923003 0.00459856
1 1 -2.91616 -1.8657 4.25339 -0.00408954 0.00416035 -0.00707589
20 4 -2.32343 -3.05503 4.43242 -0.00248484 0.00510241 -0.00461055
2 2 -2.96702 -3.83388 5.18209 0.00117465 -0.00502809 -0.0126678
26 5 -3.75246 -3.32205 0.679433 -0.00821958 0.00066438 -0.00463331
22 5 -2.76886 -1.52252 0.533277 0.00340235 -0.00548293 -0.00303631
30 5 -1.60056 -5.4371 1.05447 0.00205237 0.00169397 0.00252105
5 3 -2.73805 -3.62311 0.356855 -0.00323399 -3.49532e-05 0.00412988
29 5 -2.98335 -4.75028 2.13176 -0.00185122 0.00358485 0.000474927
18 3 -1.07715 -3.1858 3.64723 -0.00290696 -0.000246694 -0.00241088
7 3 -2.09713 -4.53273 1.50321 -0.000239802 0.000526768 0.00119682
39 5 -0.881509 -5.22108 3.07397 0.00299012 -0.000786069 -0.00601026
12 3 -0.959114 -4.27202 2.54048 -0.00171604 0.000266546 0.000442452
121 6 4.14747 1.34014 10.2813 -0.00343091 0.00173337 -0.00288361
122 6 2.43925 1.88113 10.4126 -0.00271349 0.00410728 0.0021851
85 1 3.38234 1.74401 10.9437 -0.00130343 0.0038795 -0.00126358
55 1 3.22062 0.816924 12.1468 -0.00101769 0.00913515 0.00210831
91 6 5.70934 2.32356 12.1528 0.00474742 -0.00577792 -0.00996236
120 6 6.059 2.83325 9.8883 0.00306528 0.00157707 0.000399253
57 1 4.75207 2.57738 12.5993 0.00821034 -0.000159173 -0.00555233
90 6 4.89135 3.35652 13.3477 0.0163759 -0.00316449 -0.00352291
58 2 3.81479 2.99347 11.5684 0.0021863 0.00286691 -0.000311545
59 3 4.43138 3.91144 10.6967 0.00166856 0.000565626 -9.81217e-05
84 3 5.56137 3.72302 9.88698 0.00321779 0.00185881 0.000920935
56 1 4.2038 1.30154 13.2227 0.00730871 0.00154226 -0.00377357
83 3 6.03496 4.74196 9.05329 0.00144107 -0.00158707 -0.00556577
60 3 3.81061 5.1378 10.6701 0.00140453 -0.00222193 0.000911263
92 6 3.04577 5.33646 11.3147 0.00383913 -0.000475405 0.00402455
87 6 2.20358 0.907916 12.5285 0.00112278 0.010915 0.00736261
61 3 4.17691 6.08952 9.74627 0.00195317 -0.00330767 0.000146221
62 3 5.29062 5.90466 8.90908 0.00167278 -0.00170187 -0.00286323
119 6 6.88805 4.60144 8.51887 2.59921e-05 -0.00561177 -0.00829863
94 6 7.15196 5.28705 6.33094 0.000328487 0.00213316 -0.00623635
66 3 7.39486 6.27453 6.32531 0.00262126 0.00165415 -0.00231409
63 3 5.59439 6.92152 7.99149 -0.00304996 -0.00194302 -0.00330109
64 4 4.76833 7.84023 8.06883 -0.00660704 -0.00531546 0.00025771
93 6 3.59353 6.92474 9.75114 -0.00242587 -0.00585746 0.00257607
65 3 6.62185 7.18563 7.05286 -0.000754075 -0.0015383 -0.00279507
118 6 6.44581 9.28074 7.32735 -0.00064265 -0.00589171 0.00395072
82 3 6.97975 8.53397 6.88456 0.000384734 -0.00238781 6.52229e-05
81 3 8.18555 8.9189 6.28194 -0.00150733 0.0018142 -0.00144353
117 6 8.49182 9.88942 6.36944 -0.00242186 0.00240321 -0.00575598
86 6 3.42152 -0.219442 11.8764 -0.00380485 0.0092937 0.000440939
89 6 5.00523 0.580691 13.3934 0.001966 -0.00513198 -0.00684256
88 6 3.6752 1.53328 14.1481 0.0130532 0.00669703 -0.00166741
53 5 3.44257 5.91838 -1.32618 -0.00517212 -0.00141741 -0.000577042
19 3 2.61476 5.21729 -1.21742 -0.00402672 -0.00230728 0.000244439
52 5 2.81666 4.30122 -1.81394 -0.000439366 -0.000749765 0.0026284
51 5 1.78105 5.74307 -1.6295 -0.00280914 -0.00309178 -0.00400721
37 5 -0.892405 1.24363 0.144444 -0.00164279 -0.00526558 0.00526624
107 6 12.7333 11.8548 -0.559141 0.0140015 0.000173628 -0.00762736
106 6 13.5587 13.4032 -0.459319 -0.00618884 0.00462975 -0.0122034
75 1 12.5811 12.9274 -0.576702 -0.00134031 -0.00049048 -0.00419677
111 6 12.331 11.7418 -3.52046 0.0097094 -0.00946164 -0.00298962
110 6 13.8446 12.1765 -2.80221 0.00415331 -0.00339214 -0.00029196
6 3 0.107071 -0.717502 0.0228674 -0.00156093 -0.0005054 0.00368799
27 5 0.642272 -0.435863 -0.874118 -0.00282591 -0.00174545 0.00391487
76 1 12.1024 13.2704 -1.96942 0.000287433 -0.00516874 -0.0112987
77 1 12.8916 12.5903 -3.12623 0.00356862 -0.00272654 -0.00683208
78 1 13.1606 13.6407 -4.23286 0.00627529 -0.00988603 -0.00709572
108 6 11.0707 12.944 -2.05328 0.000513452 -0.00879078 -0.00631037
112 6 13.8266 14.38 -3.76917 0.00504139 -0.00591775 -0.0111529
116 7 10.6301 12.5101 -5.52004 0.00644265 -0.00582164 -0.010518
80 5 10.8898 13.7067 -6.10705 -0.00166308 -0.0026928 -0.00590701
115 6 12.363 15.3071 -5.31057 0.00728036 -0.0068721 -0.0110022
79 1 11.9367 14.4409 -4.81272 0.00332805 -0.00561815 -0.0100493
114 6 11.2928 14.8011 -4.01542 0.00776226 -0.0158792 -0.00408279
113 6 13.657 13.1476 -5.0769 0.00261175 -0.00550271 -0.00297693
25 5 -2.90894 -4.20208 -0.561686 0.00801729 -0.00135458 0.00602348
21 5 -2.89008 -2.05294 -0.925406 0.00279846 -0.003032 -0.000879853
3 3 -2.26818 -2.21487 -0.0725017 0.00201757 -0.00393129 -0.0012724
109 6 12.1472 14.3526 -2.02569 0.00169038 -0.00857742 -0.0139054
23 5 -0.160015 -2.57193 -0.462312 0.00386913 0.00562367 0.00587323
24 5 -0.950644 -1.57471 -1.63992 -0.00109669 0.000333501 0.002276
4 3 -0.861545 -1.76504 -0.571841 0.000183977 0.000226176 0.00253906
ITEM: TIMESTEP
10300
ITEM: NUMBER OF ATOMS
122
ITEM: BOX BOUNDS pp pp pp
0.0000000000000000e+00 2.0000000000000000e+01
0.0000000000000000e+00 2.0000000000000000e+01
0.0000000000000000e+00 2.0000000000000000e+01
ITEM: ATOMS id type xu yu zu vx vy vz
31 5 2.64981 3.56293 4.72899 0.00405549 0.00275216 0.00611303
33 5 1.9876 5.511 3.60591 -0.00111027 -0.00353961 0.0053306
8 3 3.02649 3.634 3.7061 0.000437208 0.00111882 0.00301512
32 5 4.01238 4.19374 3.77687 -0.000895504 0.00244998 0.000591342
9 3 1.9065 4.55812 3.07754 -0.000315466 -0.00192457 0.00376259
34 5 0.914675 4.24332 3.43526 0.00157023 -0.00640677 0.00400277
41 5 0.976914 5.70218 1.6324 0.00782311 0.00670604 0.00594572
13 3 1.64494 4.86328 1.55879 0.00265772 0.00239757 0.00302641
35 5 4.17468 1.9732 2.81138 -0.00179255 0.00225708 0.00250753
10 3 3.28546 2.10098 3.39731 0.000140695 0.00119343 0.00473944
36 5 3.73125 1.76594 4.30668 -0.0033341 0.00199443 0.00664937
42 5 0.930965 4.11895 1.30992 -0.00312672 0.00866164 -0.000396927
14 3 2.32625 0.882015 3.16815 0.00217576 6.52083e-05 0.000687783
43 5 2.855 0.296194 2.3813 0.00162114 0.0038674 -0.00416895
44 5 2.44064 0.234719 4.03133 -0.00197147 -0.00340459 -0.00147135
17 4 0.821906 1.0164 3.21587 0.00300732 0.00549379 -0.00331186
48 5 0.395003 1.1142 4.18573 -0.000378888 0.0045054 -0.00384111
46 5 3.0702 6.28637 0.570418 -0.00107105 0.00760414 0.00111232
16 3 2.71277 5.24193 0.41794 0.00382412 0.00482263 0.00286296
47 5 3.58341 4.55588 0.508132 0.00582121 0.0030263 -0.00435172
15 4 -0.0970436 1.00692 2.12293 0.00109071 0.00553486 -0.00169199
38 5 0.599511 1.3016 0.0573872 -0.00508536 2.23681e-05 0.000881474
11 3 -0.0318011 0.684441 0.664646 -0.0025687 -0.000407248 -0.000778706
95 6 9.11155 5.87748 5.33565 0.00315495 -0.00192493 0.00547224
45 5 -1.0752 1.28286 2.30969 -0.00231005 0.00379332 0.00303461
99 6 11.9662 9.98491 2.74297 -0.00322664 -0.00239666 -0.0109548
96 6 9.48716 9.40205 2.89054 -0.00451197 -0.00307503 -0.000751067
100 6 10.3323 11.1856 1.37384 0.00998261 0.00187965 -0.0115759
73 1 11.9512 12.6393 1.68103 -0.00439125 -0.00272826 -0.00242702
103 6 12.8898 12.0825 1.69301 0.00013089 0.0031512 -0.0091853
98 6 11.7382 11.09 4.08841 0.0115232 -0.00577137 -0.00521208
70 1 10.0815 9.73097 3.74281 -0.00135215 0.00033966 -0.00307082
97 6 9.48973 10.4246 4.32772 -0.00194491 0.00244454 -0.005605
71 1 11.2415 10.6292 3.23455 0.00436112 -0.00260137 -0.00293145
72 1 10.7945 11.719 2.20519 -0.00438499 0.000761184 4.65757e-05
74 1 11.7126 13.1517 0.261871 0.000255261 -0.0030706 -0.00794343
101 6 10.048 12.3749 2.65286 -0.00494336 0.00304949 -0.00412384
102 6 12.0537 13.4998 2.33986 -0.00395874 0.000419081 -0.00541583
67 3 8.55357 6.61804 5.75786 0.000384766 -0.00182761 0.00148836
68 3 8.93245 7.94095 5.57729 0.00189063 -0.00379975 0.00134976
69 5 10.4654 8.28844 4.79922 -0.000526582 0.00240899 -0.000926527
28 5 0.8257 -1.39833 0.67366 0.00173724 0.00116725 -0.000217393
105 6 11.8823 14.2249 0.282441 0.00850256 -0.00238365 -0.0127906
104 6 10.669 12.9782 -0.019523 0.000379911 0.005154 -0.0154602
50 5 -0.388331 -3.36069 4.35048 -0.00546421 -0.000229225 0.00428927
49 5 -0.855502 -2.16576 3.19726 0.00446942 0.00302157 0.00337763
40 5 0.000862353 -4.08406 2.35291 0.00170294 0.00222354 -0.00268296
54 6 -4.0433 -1.78901 4.61155 -0.0100024 -0.00979362 -0.0140989
1 1 -3.18595 -1.81023 4.13321 -0.00178566 -0.00440028 4.50253e-05
20 4 -2.43185 -2.91484 4.24679 -0.000758812 -0.00311139 0.000765644
2 2 -2.96968 -3.82299 4.90849 -0.00894599 0.00492007 0.00619038
26 5 -3.75927 -3.54471 0.591602 0.00570593 -0.00608465 0.000820866
22 5 -2.78484 -1.43315 0.624471 -0.00309026 0.0023645 -0.00211307
30 5 -1.86157 -5.28173 1.0403 -0.00463916 0.000687688 -0.00517698
5 3 -2.68877 -3.61349 0.430805 0.00242659 -0.0023433 -0.000979782
29 5 -3.08638 -4.98215 1.96151 -0.0037679 -0.00750314 -0.00201793
18 3 -1.13708 -3.11018 3.61999 0.00124653 0.00170515 0.00164479
7 3 -2.2066 -4.46401 1.59698 -0.00293141 -0.0018629 0.00232479
39 5 -0.908529 -5.2579 3.03999 -0.00528265 -0.000431642 0.00645067
12 3 -1.03854 -4.25834 2.62287 0.00117233 -0.00118678 0.00213922
121 6 4.0226 1.37573 10.3037 0.00226979 0.000363136 0.00526596
122 6 2.50747 2.29143 10.5654 0.00534449 0.00647769 -0.00165712
85 1 3.43139 1.93714 11.0241 0.00293087 0.00436796 0.00232002
55 1 3.17476 1.07141 12.2477 0.00249817 0.00345701 0.00387653
91 6 6.10758 2.10431 12.0587 0.00111242 -0.00922797 -0.00274418
120 6 6.19181 2.81428 9.72658 -0.00293698 -0.00324046 -0.0113423
57 1 5.19286 2.45103 12.54 0.00338846 -0.00670589 -0.000561639
90 6 5.42576 3.16612 13.3304 0.00728138 -0.0062478 -0.00264587
58 2 4.22043 3.0269 11.5876 0.00676996 0.000805344 0.000398445
59 3 4.61881 3.9207 10.598 0.00354302 0.000412994 -0.00184798
84 3 5.64867 3.67823 9.70893 3.08244e-05 -0.0012638 -0.00616721
56 1 4.41131 1.26136 13.1274 0.0040856 -0.00499124 0.0034007
83 3 5.95827 4.6736 8.80375 -0.000108355 0.00184923 -0.00423861
60 3 3.88388 5.09285 10.512 0.000374866 -0.000170412 -0.0011734
92 6 3.10502 5.22688 11.1556 0.0063033 0.00605606 0.00426988
87 6 2.29191 1.43783 12.7705 0.00552078 0.011433 0.0030698
61 3 4.15989 6.06803 9.57321 -0.00415879 -0.00357826 -0.00783614
62 3 5.2407 5.88505 8.71424 -0.00100551 0.00219892 -0.00324425
119 6 6.77826 4.46252 8.26838 0.00171851 0.00473909 -0.00158543
94 6 7.17562 5.28474 6.44334 -0.00288018 0.0013894 -0.00419037
66 3 7.44015 6.25698 6.49312 -0.000148944 0.000489902 0.00112215
63 3 5.53704 6.96502 7.86888 0.00159113 0.00393774 -0.00141894
64 4 4.72127 7.8967 7.74891 0.000979442 0.00215726 -0.00715937
93 6 3.5562 6.88963 9.54227 -0.00684274 -0.00615724 -0.0108802