ITEM: TIMESTEP
0
ITEM: NUMBER OF ATOMS
122
ITEM: BOX BOUNDS pp pp pp
0.0000000000000000e+00 2.0000000000000000e+01
0.0000000000000000e+00 2.0000000000000000e+01
0.0000000000000000e+00 2.0000000000000000e+01
ITEM: ATOMS id type xu yu zu vx vy vz
2 2 0.895394 0.867982 4.88954 0 0 0
16 3 3.47818 0.824899 0.239012 0 0 0
19 3 4.53605 1.08424 1.27999 0 0 0
20 4 1.58029 0.0990422 4.44272 0 0 0
46 5 2.454 0.848053 0.822552 0 0 0
51 5 4.39584 2.0356 1.73303 0 0 0
52 5 5.50549 1.00321 0.756895 0 0 0
53 5 4.53091 0.360004 2.07085 0 0 0
54 6 3.09736 0.514234 5.71792 0 0 0
39 5 -0.180989 0.276294 2.35551 0 0 0
55 1 2.21407 9.53815 1.16076 0 0 0
56 1 3.63629 9.80186 0.716064 0 0 0
57 1 4.48837 9.52034 1.87999 0 0 0
58 2 3.71315 8.57106 2.75058 0 0 0
59 3 4.14085 8.6214 4.01333 0 0 0
60 3 3.2234 8.36398 5.08665 0 0 0
61 3 3.65109 8.41433 6.34941 0 0 0
83 3 5.92008 8.79062 5.62134 0 0 0
84 3 5.49239 8.74027 4.35858 0 0 0
85 1 2.33527 9.07091 2.64299 0 0 0
86 6 1.58429 10.4334 1.11664 0 0 0
87 6 1.76604 8.81343 0.557402 0 0 0
89 6 3.73739 10.8828 0.353639 0 0 0
90 6 5.40067 9.05352 1.59752 0 0 0
91 6 4.65866 10.4725 2.44956 0 0 0
92 6 2.22832 8.16474 4.82185 0 0 0
116 7 20.7799 10.7192 20.7609 0 0 0
120 6 6.1537 8.98638 3.53877 0 0 0
121 6 2.1555 9.91455 3.28794 0 0 0
122 6 1.59997 8.29777 2.89118 0 0 0
119 6 6.91516 8.98986 5.88614 0 0 0
80 5 19.6186 10.0868 20.4271 0 0 0
1 1 2.92945 -0.109998 4.96816 0 0 0
18 3 1.33163 -0.931748 3.39599 0 0 0
30 5 0.37114 -1.59657 0.896901 0 0 0
49 5 2.03889 -0.7668 2.54009 0 0 0
50 5 1.40996 -1.88892 3.70855 0 0 0
5 3 -1.72446 -1.5918 0.988788 0 0 0
7 3 -0.351319 -1.71166 1.62134 0 0 0
12 3 -0.087461 -0.730728 2.79953 0 0 0
22 5 -2.05023 -3.61435 0.411594 0 0 0
24 5 -4.22416 -2.65241 0.190923 0 0 0
25 5 -2.54761 -1.68361 1.80975 0 0 0
26 5 -1.81799 -0.584777 0.544764 0 0 0
29 5 -0.211839 -2.79984 2.02928 0 0 0
40 5 -0.80992 -0.845823 3.52397 0 0 0
62 3 5.00263 8.5332 6.69466 0 0 0
63 3 5.44552 8.53369 8.08888 0 0 0
64 4 4.81257 7.92837 8.92133 0 0 0
93 6 2.98978 8.16822 7.16922 0 0 0
65 3 6.73153 9.23196 8.43323 0 0 0
66 3 7.17427 10.3508 7.5893 0 0 0
67 3 8.3356 10.9832 7.92308 0 0 0
68 3 9.00825 10.5779 9.13687 0 0 0
69 5 10.4977 11.4891 9.53846 0 0 0
70 1 11.0037 10.5823 11.1138 0 0 0
71 1 12.3049 11.2307 11.5896 0 0 0
72 1 12.7346 10.5047 12.938 0 0 0
81 3 8.5743 9.59808 9.95644 0 0 0
82 3 7.41297 8.9657 9.62266 0 0 0
94 6 6.71784 10.5913 6.74441 0 0 0
95 6 8.7212 11.7162 7.31978 0 0 0
96 6 10.2441 10.6874 11.8499 0 0 0
97 6 11.1743 9.53119 10.9237 0 0 0
98 6 13.0645 11.1256 10.8534 0 0 0
99 6 12.1343 12.2818 11.7797 0 0 0
101 6 12.9052 9.45365 12.7479 0 0 0
117 6 9.14662 9.28448 10.8363 0 0 0
118 6 7.01858 8.09363 10.2503 0 0 0
102 6 14.7954 11.0481 12.6777 0 0 0
8 3 0.931296 1.79437 -1.30486 0 0 0
9 3 2.28795 1.60167 -1.91506 0 0 0
13 3 3.34583 1.86101 -0.874077 0 0 0
31 5 0.791082 2.74574 -0.851818 0 0 0
32 5 0.731527 0.996221 -0.595598 0 0 0
33 5 2.41778 2.3918 -2.69534 0 0 0
34 5 2.42817 0.650301 -2.36809 0 0 0
41 5 3.3303 2.87827 -0.410461 0 0 0
42 5 4.43995 1.84587 -1.3866 0 0 0
10 3 -0.187729 1.66604 -2.44122 0 0 0
14 3 -1.62312 1.7117 -1.87768 0 0 0
15 4 -3.18616 0.341846 -3.28139 0 0 0
17 4 -2.62625 1.51023 -2.9791 0 0 0
35 5 -0.0427042 2.40632 -3.09003 0 0 0
36 5 -0.00156241 0.633521 -2.93034 0 0 0
43 5 -1.72896 1.01074 -0.990291 0 0 0
44 5 -1.76333 2.66306 -1.42464 0 0 0
45 5 -4.00145 0.334775 -4.02655 0 0 0
48 5 -2.96915 2.38546 -3.44428 0 0 0
88 6 3.8644 9.20498 -0.145159 0 0 0
100 6 11.975 10.6098 13.6742 0 0 0
73 1 14.0358 11.1531 13.4139 0 0 0
74 1 14.4655 10.4272 14.7623 0 0 0
75 1 15.7667 11.0756 15.2381 0 0 0
76 1 16.1964 10.3496 16.5866 0 0 0
77 1 17.4976 10.9981 17.0624 0 0 0
78 1 17.8573 10.2641 18.3399 0 0 0
79 1 19.2285 10.9205 18.8867 0 0 0
103 6 13.8652 12.2042 13.604 0 0 0
104 6 13.7059 10.5323 15.4985 0 0 0
105 6 14.6361 9.3761 14.5722 0 0 0
106 6 16.5263 10.9705 14.502 0 0 0
107 6 15.5961 12.1267 15.4282 0 0 0
108 6 15.3668 10.4467 17.2517 0 0 0
109 6 16.297 9.29054 16.3255 0 0 0
110 6 18.2572 10.893 16.3263 0 0 0
111 6 17.327 12.0491 17.2525 0 0 0
112 6 17.0977 10.3692 19.076 0 0 0
113 6 18.0279 9.21299 18.1498 0 0 0
114 6 19.9881 10.8154 18.1505 0 0 0
115 6 19.0579 11.9716 19.0768 0 0 0
47 5 3.56365 -0.184341 -0.153582 0 0 0
3 3 -2.0978 -2.68849 -0.0685168 0 0 0
4 3 -3.5169 -2.48747 -0.66498 0 0 0
6 3 -3.80266 -1.22645 -1.37079 0 0 0
11 3 -2.9004 -0.919174 -2.57558 0 0 0
21 5 -1.37535 -2.57339 -0.792952 0 0 0
23 5 -3.63245 -3.38174 -1.295 0 0 0
27 5 -3.74185 -0.390048 -0.680324 0 0 0
28 5 -4.85888 -1.29468 -1.73098 0 0 0
37 5 -2.96121 -1.75557 -3.26605 0 0 0
38 5 -1.79823 -0.932091 -2.25148 0 0 0
ITEM: TIMESTEP
25
ITEM: NUMBER OF ATOMS
122
ITEM: BOX BOUNDS pp pp pp
0.0000000000000000e+00 2.0000000000000000e+01
0.0000000000000000e+00 2.0000000000000000e+01
0.0000000000000000e+00 2.0000000000000000e+01
ITEM: ATOMS id type xu yu zu vx vy vz
2 2 1.17161 1.11967 5.23511 0 0 0
16 3 3.90145 1.06671 0.411615 0 0 0
19 3 5.08961 1.16685 1.43399 0 0 0
20 4 1.8448 0.152258 4.81203 0 0 0
46 5 3.12403 1.35033 1.10019 0 0 0
51 5 4.91355 1.93848 2.19128 0 0 0
52 5 6.13081 1.20902 1.09088 0 0 0
53 5 5.05111 0.229719 1.98208 0 0 0
54 6 3.47225 0.728337 5.89401 0 0 0
39 5 0.176825 0.128714 2.63851 0 0 0
55 1 2.32147 9.5678 1.14777 0 0 0
56 1 3.72982 9.77017 0.648069 0 0 0
57 1 4.54973 9.48523 1.88604 0 0 0
58 2 3.77252 8.52875 2.70951 0 0 0
59 3 4.16798 8.51919 4.05698 0 0 0
60 3 3.28591 8.28525 5.13343 0 0 0
61 3 3.73312 8.31382 6.44285 0 0 0
83 3 5.95617 8.65306 5.65995 0 0 0
84 3 5.51642 8.67378 4.36655 0 0 0
85 1 2.40904 9.0338 2.56924 0 0 0
86 6 1.88562 10.5494 1.20862 0 0 0
87 6 1.76432 8.88567 0.504018 0 0 0
89 6 3.86948 10.802 0.320668 0 0 0
90 6 5.50508 9.07358 1.56096 0 0 0
91 6 4.68901 10.4245 2.42247 0 0 0
92 6 2.29648 8.09503 4.98697 0 0 0
116 7 19.9213 11.2845 20.7619 0 0 0
120 6 6.23376 8.78919 3.65578 0 0 0
121 6 2.23213 9.86761 3.24927 0 0 0
122 6 1.66773 8.2466 2.71824 0 0 0
119 6 6.96038 8.69373 5.80811 0 0 0
80 5 19.1929 10.1887 20.4526 0 0 0
1 1 3.11183 0.0572546 5.27404 0 0 0
18 3 1.42114 -0.990259 3.95385 0 0 0
30 5 0.329122 -1.67787 1.02269 0 0 0
49 5 2.34725 -1.21161 3.4356 0 0 0
50 5 1.29791 -1.76044 4.71987 0 0 0
5 3 -1.79532 -1.94561 1.09452 0 0 0
7 3 -0.341838 -1.94023 1.84876 0 0 0
12 3 0.10107 -0.883169 3.05449 0 0 0
22 5 -2.80898 -3.88393 0.70341 0 0 0
24 5 -4.69912 -2.9259 -0.20193 0 0 0
25 5 -2.6022 -1.79375 1.80969 0 0 0
26 5 -1.7131 -1.09012 0.465156 0 0 0
29 5 -0.0822317 -2.96455 2.13408 0 0 0
40 5 -0.603909 -0.871792 3.89511 0 0 0
62 3 5.06709 8.55382 6.72808 0 0 0
63 3 5.51595 8.62384 8.04912 0 0 0
64 4 4.86523 8.02019 8.91114 0 0 0
93 6 3.05596 8.1805 7.19971 0 0 0
65 3 6.67459 9.31747 8.43321 0 0 0
66 3 7.19177 10.4157 7.72738 0 0 0
67 3 8.39081 10.9934 8.09145 0 0 0
68 3 9.06817 10.5651 9.22722 0 0 0
69 5 10.5416 11.425 9.56787 0 0 0
70 1 11.0444 10.6187 11.0947 0 0 0
71 1 12.335 11.2467 11.6092 0 0 0
72 1 12.7416 10.5288 12.9047 0 0 0
81 3 8.50765 9.53103 9.97725 0 0 0
82 3 7.33009 8.92039 9.58327 0 0 0
94 6 6.69326 10.8159 6.93715 0 0 0
95 6 8.7783 11.7488 7.52536 0 0 0
96 6 10.2715 10.7508 11.8513 0 0 0
97 6 11.2247 9.56139 10.9016 0 0 0
98 6 13.1171 11.1301 10.8623 0 0 0
99 6 12.1694 12.3031 11.8112 0 0 0
101 6 12.9002 9.47127 12.6999 0 0 0
117 6 8.9318 9.17475 10.8284 0 0 0
118 6 6.97195 8.14867 10.149 0 0 0
102 6 14.8217 11.0359 12.6843 0 0 0
8 3 0.940376 1.8684 -1.6044 0 0 0
9 3 2.51969 1.82487 -2.00022 0 0 0
13 3 3.75259 1.88827 -0.97066 0 0 0
31 5 0.841568 2.60367 -0.801861 0 0 0
32 5 0.799581 0.855782 -1.24518 0 0 0
33 5 2.8168 2.67659 -2.61516 0 0 0
34 5 2.73625 0.960966 -2.64258 0 0 0
41 5 4.01889 2.94706 -0.846103 0 0 0
42 5 4.52647 1.52653 -1.64849 0 0 0
10 3 -0.346 2.07445 -2.58347 0 0 0
14 3 -1.89533 2.16599 -2.1079 0 0 0
15 4 -3.42226 0.396813 -3.41776 0 0 0
17 4 -2.95093 1.66803 -3.04901 0 0 0
35 5 -0.258809 3.03184 -3.10228 0 0 0
36 5 -0.327871 1.32726 -3.36701 0 0 0
43 5 -2.22719 1.89716 -1.10737 0 0 0
44 5 -2.1103 3.23522 -2.1416 0 0 0
45 5 -3.98503 0.467925 -4.27616 0 0 0
48 5 -3.51297 2.40267 -3.4969 0 0 0
88 6 3.95852 9.0666 -0.155252 0 0 0
100 6 11.9545 10.6424 13.6475 0 0 0
73 1 14.0344 11.1511 13.4254 0 0 0
74 1 14.4505 10.4412 14.7198 0 0 0
75 1 15.7423 11.0744 15.2243 0 0 0
76 1 16.1558 10.3635 16.5104 0 0 0
77 1 17.4471 11.0022 17.0058 0 0 0
78 1 17.8288 10.2746 18.2811 0 0 0
79 1 19.0815 10.9182 18.832 0 0 0
103 6 13.8756 12.2076 13.6323 0 0 0
104 6 13.6689 10.5564 15.4677 0 0 0
105 6 14.6153 9.38386 14.5192 0 0 0
106 6 16.5303 10.9602 14.4822 0 0 0
107 6 15.5833 12.1317 15.4336 0 0 0
108 6 15.3803 10.479 17.2645 0 0 0
109 6 16.3272 9.30665 16.3142 0 0 0
110 6 18.2402 10.8881 16.2695 0 0 0
111 6 17.2838 12.0581 17.2192 0 0 0
112 6 17.0435 10.3791 19.0284 0 0 0
113 6 18.0211 9.21938 18.0921 0 0 0
114 6 19.9553 10.704 18.2152 0 0 0
115 6 18.948 11.9927 18.9487 0 0 0
47 5 3.83546 -0.0156943 0.243197 0 0 0
3 3 -2.45524 -3.05612 0.0882693 0 0 0
4 3 -3.77271 -2.78973 -0.785227 0 0 0
6 3 -4.11847 -1.53571 -1.69084 0 0 0
11 3 -3.2534 -1.00342 -2.92315 0 0 0
21 5 -1.76289 -3.5282 -0.610167 0 0 0
23 5 -3.84773 -3.72687 -1.36566 0 0 0
27 5 -4.49518 -0.703238 -1.08369 0 0 0
28 5 -5.04432 -1.88661 -2.14866 0 0 0
37 5 -3.62676 -1.53795 -3.79688 0 0 0
38 5 -2.2083 -1.25786 -2.9046 0 0 0
ITEM: TIMESTEP
50
ITEM: NUMBER OF ATOMS
122
ITEM: BOX BOUNDS pp pp pp
0.0000000000000000e+00 2.0000000000000000e+01
0.0000000000000000e+00 2.0000000000000000e+01
0.0000000000000000e+00 2.0000000000000000e+01
ITEM: ATOMS id type xu yu zu vx vy vz
2 2 1.19576 0.93316 5.39436 0 0 0
16 3 3.88968 1.09465 0.396033 0 0 0
19 3 5.14715 1.20025 1.33105 0 0 0
20 4 1.87794 0.0478347 4.82447 0 0 0
46 5 3.157 1.42888 1.11949 0 0 0
51 5 5.05054 2.03504 2.03132 0 0 0
52 5 6.1643 1.19211 0.911595 0 0 0
53 5 5.10444 0.304958 1.94908 0 0 0
54 6 3.57934 0.805246 5.61223 0 0 0
39 5 0.257593 0.0350085 2.72054 0 0 0
55 1 2.37767 9.62599 1.05731 0 0 0
56 1 3.81976 9.70178 0.577744 0 0 0
57 1 4.6261 9.43568 1.84534 0 0 0
58 2 3.82527 8.4832 2.63621 0 0 0
59 3 4.2399 8.42119 3.99175 0 0 0
60 3 3.34983 8.23573 5.05675 0 0 0
61 3 3.77423 8.27999 6.3804 0 0 0
83 3 6.01375 8.55231 5.64318 0 0 0
84 3 5.59595 8.48535 4.3253 0 0 0
85 1 2.46879 9.0508 2.47255 0 0 0
86 6 1.94125 10.6247 1.08953 0 0 0
87 6 1.79255 8.97501 0.405625 0 0 0
89 6 4.0574 10.6778 0.156805 0 0 0
90 6 5.5945 9.02905 1.55377 0 0 0
91 6 4.74661 10.3743 2.38856 0 0 0
92 6 2.35848 8.06617 4.89922 0 0 0
116 7 19.5711 11.6383 21.1388 0 0 0
120 6 6.32201 8.48175 3.61325 0 0 0
121 6 2.30956 9.87291 3.17141 0 0 0
122 6 1.7053 8.28337 2.6079 0 0 0
119 6 7.0163 8.60016 5.81932 0 0 0
80 5 18.771 10.5857 20.823 0 0 0
1 1 3.20285 0.0942678 5.0457 0 0 0
18 3 1.38868 -1.14743 4.08047 0 0 0
30 5 0.327889 -1.90562 1.2065 0 0 0
49 5 2.31954 -1.46601 3.59398 0 0 0
50 5 1.19827 -1.83778 4.9081 0 0 0
5 3 -1.81947 -1.823 1.10173 0 0 0
7 3 -0.437039 -1.98198 1.98677 0 0 0
12 3 0.0914275 -0.955792 3.15528 0 0 0
22 5 -3.01571 -3.68867 0.848685 0 0 0
24 5 -4.64189 -2.96536 -0.299951 0 0 0
25 5 -2.65102 -1.39657 1.66574 0 0 0
26 5 -1.54353 -1.08429 0.376093 0 0 0
29 5 -0.379458 -2.99041 2.41182 0 0 0
40 5 -0.654341 -0.891491 3.95459 0 0 0
62 3 5.10559 8.52228 6.6986 0 0 0
63 3 5.4977 8.65555 8.03819 0 0 0
64 4 4.77506 8.14323 8.91915 0 0 0
93 6 3.07923 8.16365 7.11675 0 0 0
65 3 6.65082 9.3256 8.46577 0 0 0
66 3 7.1695 10.4197 7.77531 0 0 0
67 3 8.3408 11.0291 8.1939 0 0 0
68 3 9.02331 10.5768 9.30487 0 0 0
69 5 10.5089 11.4244 9.6128 0 0 0
70 1 11.0383 10.6176 11.1259 0 0 0
71 1 12.3349 11.2639 11.5816 0 0 0
72 1 12.757 10.5633 12.873 0 0 0
81 3 8.47332 9.52228 10.0453 0 0 0
82 3 7.28263 8.92781 9.63885 0 0 0
94 6 6.68434 10.8048 6.96828 0 0 0
95 6 8.70784 11.8265 7.66979 0 0 0
96 6 10.2839 10.7552 11.9002 0 0 0
97 6 11.2185 9.5589 10.9404 0 0 0
98 6 13.1016 11.1317 10.8184 0 0 0
99 6 12.1737 12.325 11.7666 0 0 0
101 6 12.9196 9.5045 12.6744 0 0 0
117 6 8.90995 9.14719 10.8797 0 0 0
118 6 6.90706 8.16505 10.2 0 0 0
102 6 14.8247 11.083 12.6251 0 0 0
8 3 0.878066 1.8461 -1.56622 0 0 0
9 3 2.44583 1.87503 -1.97739 0 0 0
13 3 3.70821 1.84829 -1.0159 0 0 0
31 5 0.775006 2.52717 -0.718639 0 0 0
32 5 0.752106 0.817005 -1.24099 0 0 0
33 5 2.73667 2.78985 -2.51137 0 0 0
34 5 2.67711 1.06181 -2.68157 0 0 0
41 5 4.03151 2.89894 -0.976183 0 0 0
42 5 4.39399 1.37147 -1.72135 0 0 0
10 3 -0.390913 2.17163 -2.53879 0 0 0
14 3 -1.95232 2.14809 -2.13465 0 0 0
15 4 -3.40792 0.361309 -3.47988 0 0 0
17 4 -2.95413 1.64345 -3.1228 0 0 0
35 5 -0.337451 3.23209 -2.8043 0 0 0
36 5 -0.314034 1.62452 -3.482 0 0 0
43 5 -2.29789 1.86416 -1.13439 0 0 0
44 5 -2.1992 3.21063 -2.15277 0 0 0
45 5 -4.03434 0.418909 -4.29887 0 0 0
48 5 -3.49405 2.37481 -3.62634 0 0 0
88 6 4.01123 8.90956 -0.14864 0 0 0
100 6 11.9734 10.6792 13.6223 0 0 0
73 1 14.042 11.1966 13.3744 0 0 0
74 1 14.4478 10.4734 14.6623 0 0 0
75 1 15.7458 11.0912 15.1782 0 0 0
76 1 16.1628 10.368 16.4613 0 0 0
77 1 17.4539 10.9822 17.0177 0 0 0
78 1 17.8107 10.2705 18.3295 0 0 0
79 1 18.9548 10.9618 19.0744 0 0 0
103 6 13.8761 12.2525 13.5808 0 0 0
104 6 13.6594 10.5934 15.4033 0 0 0
105 6 14.5974 9.41725 14.4515 0 0 0
106 6 16.5245 10.9794 14.4254 0 0 0
107 6 15.5817 12.1465 15.3864 0 0 0
108 6 15.3633 10.4707 17.1941 0 0 0
109 6 16.325 9.31391 16.246 0 0 0
110 6 18.263 10.8539 16.2986 0 0 0
111 6 17.2901 12.0427 17.2009 0 0 0
112 6 16.9371 10.2804 18.9814 0 0 0
113 6 18.089 9.23763 18.1197 0 0 0
114 6 19.9217 10.604 18.7159 0 0 0
115 6 18.894 12.0425 18.9538 0 0 0
47 5 3.77194 0.0151369 0.273714 0 0 0
3 3 -2.50965 -2.97721 0.185245 0 0 0
4 3 -3.69473 -2.79478 -0.827239 0 0 0
6 3 -4.03687 -1.58518 -1.79593 0 0 0
11 3 -3.11464 -1.01814 -2.96418 0 0 0
21 5 -1.82395 -3.56518 -0.437093 0 0 0
23 5 -3.63787 -3.73332 -1.39656 0 0 0
27 5 -4.48732 -0.782444 -1.20307 0 0 0
28 5 -4.89892 -2.02658 -2.30323 0 0 0
37 5 -3.32228 -1.6117 -3.85558 0 0 0
38 5 -2.04231 -1.14808 -2.83319 0 0 0
ITEM: TIMESTEP
75
ITEM: NUMBER OF ATOMS
122
ITEM: BOX BOUNDS pp pp pp
0.0000000000000000e+00 2.0000000000000000e+01
0.0000000000000000e+00 2.0000000000000000e+01
0.0000000000000000e+00 2.0000000000000000e+01
ITEM: ATOMS id type xu yu zu vx vy vz
2 2 1.26288 0.557473 5.8189 0 0 0
16 3 3.82469 1.08912 0.351401 0 0 0
19 3 5.13591 1.12142 1.21912 0 0 0
20 4 1.85251 -0.0645006 4.90158 0 0 0
46 5 3.12934 1.45547 1.10229 0 0 0
51 5 5.20987 2.01181 1.85479 0 0 0
52 5 6.10942 0.927704 0.752944 0 0 0
53 5 5.01513 0.2923 1.91088 0 0 0
54 6 3.49092 1.13768 5.00374 0 0 0
39 5 0.318126 -0.0502323 2.87963 0 0 0
55 1 2.41121 9.59995 0.96737 0 0 0
56 1 3.85456 9.62493 0.484054 0 0 0
57 1 4.66244 9.35754 1.75029 0 0 0
58 2 3.82949 8.45313 2.5635 0 0 0
59 3 4.23722 8.40102 3.92272 0 0 0
60 3 3.33148 8.22215 4.97228 0 0 0
61 3 3.73682 8.26761 6.30174 0 0 0
83 3 5.99304 8.49989 5.58893 0 0 0
84 3 5.58837 8.46223 4.26449 0 0 0
85 1 2.49287 9.05798 2.39514 0 0 0
86 6 1.99299 10.6064 0.972806 0 0 0
87 6 1.81404 8.93857 0.338808 0 0 0
89 6 4.11513 10.588 0.0449996 0 0 0
90 6 5.61032 8.90306 1.46059 0 0 0
91 6 4.82878 10.3019 2.27159 0 0 0
92 6 2.33978 8.05808 4.80337 0 0 0
116 7 19.5352 11.7175 21.3619 0 0 0
120 6 6.32495 8.47494 3.56321 0 0 0
121 6 2.36323 9.89788 3.07862 0 0 0
122 6 1.70487 8.31891 2.5436 0 0 0
119 6 6.99337 8.52194 5.77921 0 0 0
80 5 18.5193 10.8788 21.0321 0 0 0
1 1 3.0967 0.349615 4.57413 0 0 0
18 3 1.32571 -1.29641 4.27689 0 0 0
30 5 0.356669 -1.9531 1.34275 0 0 0
49 5 2.24735 -1.73464 3.86562 0 0 0
50 5 1.02843 -1.8989 5.14542 0 0 0
5 3 -1.75633 -1.80798 1.13173 0 0 0
7 3 -0.439146 -2.02149 2.09346 0 0 0
12 3 0.0846368 -1.03566 3.29563 0 0 0
22 5 -3.10128 -3.57399 0.936123 0 0 0
24 5 -4.59444 -2.82562 -0.346155 0 0 0
25 5 -2.56613 -1.25285 1.61382 0 0 0
26 5 -1.36898 -1.1559 0.376319 0 0 0
29 5 -0.423543 -3.03457 2.51191 0 0 0
40 5 -0.694666 -0.915617 4.05146 0 0 0
62 3 5.0722 8.4801 6.63182 0 0 0
63 3 5.46231 8.59921 7.96954 0 0 0
64 4 4.74234 8.05157 8.83549 0 0 0
93 6 3.03102 8.17442 7.03033 0 0 0
65 3 6.60055 9.2904 8.40896 0 0 0
66 3 7.14022 10.3667 7.7049 0 0 0
67 3 8.29053 11.0068 8.14408 0 0 0
68 3 8.92014 10.6199 9.31803 0 0 0
69 5 10.3631 11.5155 9.71713 0 0 0
70 1 10.9885 10.6358 11.1603 0 0 0
71 1 12.318 11.2658 11.59 0 0 0
72 1 12.8137 10.5995 12.8798 0 0 0
81 3 8.34758 9.58806 10.0618 0 0 0
82 3 7.19894 8.94099 9.6155 0 0 0
94 6 6.68704 10.7244 6.86508 0 0 0
95 6 8.67163 11.7767 7.59531 0 0 0
96 6 10.274 10.7264 11.9784 0 0 0
97 6 11.1539 9.58648 10.9137 0 0 0
98 6 13.0523 11.125 10.7969 0 0 0
99 6 12.167 12.3313 11.7607 0 0 0
101 6 12.9771 9.53938 12.691 0 0 0
117 6 8.74442 9.27218 10.9414 0 0 0
118 6 6.82049 8.18119 10.1809 0 0 0
102 6 14.8939 11.1235 12.607 0 0 0
8 3 0.800274 1.91582 -1.56413 0 0 0
9 3 2.35666 1.88366 -2.00408 0 0 0
13 3 3.62532 1.85897 -1.05319 0 0 0
31 5 0.724553 2.57029 -0.691382 0 0 0
32 5 0.665396 0.877295 -1.28361 0 0 0
33 5 2.66305 2.7594 -2.58896 0 0 0
34 5 2.52314 1.02232 -2.66662 0 0 0
41 5 3.95647 2.90756 -1.0031 0 0 0
42 5 4.29689 1.39955 -1.78557 0 0 0
10 3 -0.469539 2.33453 -2.48389 0 0 0
14 3 -2.01925 2.16831 -2.09938 0 0 0
15 4 -3.2006 0.291028 -3.57829 0 0 0
17 4 -2.95343 1.59648 -3.11579 0 0 0
35 5 -0.450596 3.4278 -2.54731 0 0 0
36 5 -0.383092 1.97307 -3.51539 0 0 0
43 5 -2.35259 1.8886 -1.09468 0 0 0
44 5 -2.34499 3.20888 -2.13418 0 0 0
45 5 -3.68422 0.30837 -4.48982 0 0 0
48 5 -3.59311 2.27481 -3.56252 0 0 0
88 6 4.01815 8.81733 -0.229372 0 0 0
100 6 12.0555 10.7132 13.6536 0 0 0
73 1 14.1243 11.2333 13.3709 0 0 0
74 1 14.5604 10.5194 14.655 0 0 0
75 1 15.8688 11.0974 15.2128 0 0 0
76 1 16.2404 10.3442 16.497 0 0 0
77 1 17.4817 10.9757 17.1434 0 0 0
78 1 17.7715 10.3159 18.4989 0 0 0
79 1 18.8473 11.0848 19.276 0 0 0
103 6 13.9627 12.2914 13.5761 0 0 0
104 6 13.7783 10.6351 15.4049 0 0 0
105 6 14.7042 9.46009 14.4473 0 0 0
106 6 16.6662 10.9813 14.4789 0 0 0
107 6 15.728 12.1548 15.4336 0 0 0
108 6 15.4048 10.3988 17.1949 0 0 0
109 6 16.4452 9.29945 16.263 0 0 0
110 6 18.3408 10.8476 16.4853 0 0 0
111 6 17.2908 12.038 17.2901 0 0 0
112 6 16.8641 10.3103 19.101 0 0 0
113 6 18.1047 9.28869 18.3472 0 0 0
114 6 19.8351 10.6916 19.0372 0 0 0
115 6 18.8118 12.1474 19.0381 0 0 0
47 5 3.64419 0.0161562 0.244567 0 0 0
3 3 -2.50575 -2.95158 0.256609 0 0 0
4 3 -3.61901 -2.74533 -0.83954 0 0 0
6 3 -3.85824 -1.57954 -1.87427 0 0 0
11 3 -2.89559 -1.06555 -3.0292 0 0 0
21 5 -1.84148 -3.6258 -0.302983 0 0 0
23 5 -3.58784 -3.70163 -1.37177 0 0 0
27 5 -4.33359 -0.762465 -1.33702 0 0 0
28 5 -4.69807 -2.02526 -2.40956 0 0 0
37 5 -3.09619 -1.68384 -3.90767 0 0 0
38 5 -1.82787 -1.18249 -2.86717 0 0 0
ITEM: TIMESTEP
100
ITEM: NUMBER OF ATOMS
122
ITEM: BOX BOUNDS pp pp pp
0.0000000000000000e+00 2.0000000000000000e+01
0.0000000000000000e+00 2.0000000000000000e+01
0.0000000000000000e+00 2.0000000000000000e+01
ITEM: ATOMS id type xu yu zu vx vy vz
2 2 1.17843 0.376187 6.06112 0 0 0
16 3 3.81201 1.00628 0.245745 0 0 0
19 3 5.15314 0.907564 1.06133 0 0 0
20 4 1.70861 -0.00856183 4.99013 0 0 0
46 5 3.16646 1.40076 1.02698 0 0 0
51 5 5.29381 1.74778 1.75101 0 0 0
52 5 6.10458 0.702363 0.550815 0 0 0
53 5 5.0046 0.0389055 1.70416 0 0 0
54 6 3.08792 1.48498 4.99621 0 0 0
39 5 0.00628333 -0.0532474 3.1563 0 0 0
55 1 2.33296 9.53218 0.858498 0 0 0
56 1 3.76977 9.55647 0.361327 0 0 0
57 1 4.59485 9.23299 1.60307 0 0 0
58 2 3.7364 8.42594 2.49038 0 0 0
59 3 4.19577 8.39873 3.83899 0 0 0
60 3 3.32762 8.19858 4.91691 0 0 0
61 3 3.77859 8.2351 6.23817 0 0 0
83 3 5.99583 8.54201 5.47063 0 0 0
84 3 5.55187 8.49634 4.15674 0 0 0
85 1 2.42659 9.08545 2.3205 0 0 0
86 6 1.89597 10.5268 0.790284 0 0 0
87 6 1.75141 8.81913 0.273374 0 0 0
89 6 4.03229 10.5379 -0.0341066 0 0 0
90 6 5.48625 8.68727 1.294 0 0 0
91 6 4.86467 10.1719 2.08818 0 0 0
92 6 2.33635 8.02276 4.76843 0 0 0
116 7 19.7064 11.6863 21.4165 0 0 0
120 6 6.27241 8.52662 3.43894 0 0 0
121 6 2.35847 9.96737 2.95739 0 0 0
122 6 1.6054 8.40126 2.53417 0 0 0
119 6 6.99997 8.59063 5.62701 0 0 0
80 5 18.7996 10.7222 21.1003 0 0 0
1 1 2.78419 0.676208 4.53315 0 0 0
18 3 1.30945 -1.26494 4.32655 0 0 0
30 5 0.369638 -1.81944 1.37791 0 0 0
49 5 2.26567 -1.5826 3.87999 0 0 0
50 5 1.10268 -1.93061 5.17407 0 0 0
5 3 -1.74375 -1.89311 1.19512 0 0 0
7 3 -0.40114 -2.04343 2.1256 0 0 0
12 3 -0.00224021 -1.11807 3.41951 0 0 0
22 5 -2.90926 -3.76389 0.849401 0 0 0
24 5 -4.52123 -2.89366 -0.352698 0 0 0
25 5 -2.59584 -1.472 1.73825 0 0 0
26 5 -1.42688 -1.12712 0.510414 0 0 0
29 5 -0.264525 -3.08111 2.45515 0 0 0
40 5 -0.738583 -1.26448 4.21827 0 0 0
62 3 5.11334 8.48265 6.54677 0 0 0
63 3 5.5256 8.59472 7.88983 0 0 0
64 4 4.79839 8.04472 8.7422 0 0 0
93 6 3.08994 8.10281 6.9787 0 0 0
65 3 6.65382 9.28314 8.37767 0 0 0
66 3 7.27729 10.3165 7.67161 0 0 0
67 3 8.37783 10.9811 8.18391 0 0 0
68 3 8.89287 10.6756 9.43531 0 0 0
69 5 10.2613 11.6376 9.92353 0 0 0
70 1 10.9766 10.6561 11.2535 0 0 0
71 1 12.315 11.2796 11.6694 0 0 0
72 1 12.8389 10.5623 12.9209 0 0 0
81 3 8.25374 9.68124 10.1758 0 0 0
82 3 7.15157 9.00511 9.65237 0 0 0
94 6 6.91445 10.6333 6.77644 0 0 0
95 6 8.81325 11.7248 7.63736 0 0 0
96 6 10.3031 10.667 12.1091 0 0 0
97 6 11.1436 9.63366 10.915 0 0 0
98 6 13.0322 11.1773 10.8544 0 0 0
99 6 12.1656 12.3374 11.8883 0 0 0
101 6 12.9713 9.50462 12.6946 0 0 0
117 6 8.56712 9.43045 11.1104 0 0 0
118 6 6.72069 8.28335 10.2311 0 0 0
102 6 14.9286 11.0194 12.6141 0 0 0
8 3 0.779992 1.99418 -1.5747 0 0 0
9 3 2.32963 1.95939 -2.03701 0 0 0
13 3 3.61482 1.83848 -1.12207 0 0 0
31 5 0.720417 2.63802 -0.695653 0 0 0
32 5 0.6171 0.962243 -1.28627 0 0 0
33 5 2.64239 2.87441 -2.55511 0 0 0
34 5 2.48669 1.14781 -2.76109 0 0 0
41 5 3.98047 2.87101 -1.02082 0 0 0
42 5 4.24846 1.39294 -1.89426 0 0 0
10 3 -0.488821 2.44932 -2.48465 0 0 0
14 3 -2.03868 2.24966 -2.12853 0 0 0
15 4 -3.12398 0.273226 -3.55546 0 0 0
17 4 -2.94031 1.5993 -3.12727 0 0 0
35 5 -0.478708 3.54535 -2.49119 0 0 0
36 5 -0.397222 2.15198 -3.536 0 0 0
43 5 -2.38938 2.02407 -1.11179 0 0 0
44 5 -2.38523 3.27969 -2.23495 0 0 0
45 5 -3.59 0.252081 -4.47658 0 0 0
48 5 -3.60574 2.23734 -3.5996 0 0 0
88 6 3.91452 8.78737 -0.396623 0 0 0
100 6 12.105 10.6701 13.7195 0 0 0
73 1 14.1754 11.1521 13.3913 0 0 0
74 1 14.631 10.4407 14.6734 0 0 0
75 1 15.9201 11.068 15.2185 0 0 0
76 1 16.3102 10.3743 16.5339 0 0 0
77 1 17.4601 11.1006 17.2406 0 0 0
78 1 17.658 10.5113 18.6462 0 0 0
79 1 18.8221 11.1986 19.3649 0 0 0
103 6 14.0466 12.2148 13.5959 0 0 0
104 6 13.8445 10.531 15.4231 0 0 0
105 6 14.8034 9.38503 14.4611 0 0 0
106 6 16.7235 10.947 14.4919 0 0 0
107 6 15.752 12.1294 15.3992 0 0 0
108 6 15.4449 10.3582 17.1953 0 0 0
109 6 16.6132 9.35024 16.3172 0 0 0
110 6 18.3766 10.9843 16.6617 0 0 0
111 6 17.2221 12.16 17.3342 0 0 0
112 6 16.7528 10.6694 19.2324 0 0 0
113 6 17.8579 9.442 18.5763 0 0 0
114 6 19.7697 10.9024 18.9133 0 0 0
115 6 18.7095 12.2804 19.3016 0 0 0
47 5 3.55431 -0.0474081 0.112851 0 0 0
3 3 -2.3886 -3.02541 0.225315 0 0 0
4 3 -3.53989 -2.80071 -0.836237 0 0 0
6 3 -3.76802 -1.60717 -1.84477 0 0 0
11 3 -2.77529 -1.05524 -2.96418 0 0 0
21 5 -1.6691 -3.59194 -0.386003 0 0 0
23 5 -3.52331 -3.74553 -1.3908 0 0 0
27 5 -4.24326 -0.794076 -1.2944 0 0 0
28 5 -4.60063 -2.04224 -2.4003 0 0 0
37 5 -2.87382 -1.6995 -3.83931 0 0 0
38 5 -1.71669 -1.0916 -2.74072 0 0 0
ITEM: TIMESTEP
125
ITEM: NUMBER OF ATOMS
122
ITEM: BOX BOUNDS pp pp pp
0.0000000000000000e+00 2.0000000000000000e+01
0.0000000000000000e+00 2.0000000000000000e+01
0.0000000000000000e+00 2.0000000000000000e+01
ITEM: ATOMS id type xu yu zu vx vy vz
2 2 1.07842 0.333579 6.14184 0 0 0
16 3 3.75245 0.865313 0.184148 0 0 0
19 3 5.05734 0.732391 1.04444 0 0 0
20 4 1.64641 0.0670077 5.0555 0 0 0
46 5 3.07228 1.17499 0.973185 0 0 0
51 5 5.27708 1.59519 1.683 0 0 0
52 5 5.97506 0.384465 0.557195 0 0 0
53 5 4.82035 -0.0626811 1.74372 0 0 0
54 6 2.84971 1.70247 5.14956 0 0 0
39 5 -0.129883 -0.057437 3.31863 0 0 0
55 1 2.29865 9.45025 0.848445 0 0 0
56 1 3.70873 9.41309 0.278232 0 0 0
57 1 4.58936 9.11542 1.48893 0 0 0
58 2 3.74341 8.38499 2.45093 0 0 0
59 3 4.24682 8.39275 3.77904 0 0 0
60 3 3.39626 8.18122 4.86704 0 0 0
61 3 3.85246 8.2552 6.17758 0 0 0
83 3 6.05946 8.59981 5.38558 0 0 0
84 3 5.60432 8.54163 4.07606 0 0 0
85 1 2.46803 9.11303 2.32989 0 0 0
86 6 1.86599 10.4416 0.729024 0 0 0
87 6 1.67919 8.69848 0.359446 0 0 0
89 6 3.97481 10.3725 -0.166511 0 0 0
90 6 5.44694 8.52204 1.17217 0 0 0
91 6 4.9135 10.0675 1.91163 0 0 0
92 6 2.40867 7.97345 4.73484 0 0 0
116 7 19.8108 11.6193 21.449 0 0 0
120 6 6.31368 8.59819 3.34837 0 0 0
121 6 2.5067 10.0392 2.90418 0 0 0
122 6 1.62133 8.50416 2.64559 0 0 0
119 6 7.06431 8.66485 5.53384 0 0 0
80 5 18.7825 10.7857 21.1406 0 0 0
1 1 2.63326 0.893327 4.6377 0 0 0
18 3 1.38291 -1.181 4.3096 0 0 0
30 5 0.405216 -1.62886 1.35256 0 0 0
49 5 2.34293 -1.34424 3.80608 0 0 0
50 5 1.31241 -1.93675 5.10005 0 0 0
5 3 -1.70475 -1.88056 1.21786 0 0 0
7 3 -0.318797 -1.97137 2.1023 0 0 0
12 3 0.0226756 -1.13359 3.46544 0 0 0
22 5 -2.74533 -3.78157 0.797283 0 0 0
24 5 -4.3837 -3.02233 -0.416151 0 0 0
25 5 -2.58299 -1.63218 1.82444 0 0 0
26 5 -1.52287 -1.01456 0.599523 0 0 0
29 5 -0.0781585 -3.01171 2.36064 0 0 0
40 5 -0.646895 -1.4696 4.26531 0 0 0
62 3 5.18764 8.52855 6.46848 0 0 0
63 3 5.58877 8.6533 7.80841 0 0 0
64 4 4.84506 8.10807 8.65337 0 0 0
93 6 3.16806 8.1298 6.92232 0 0 0
65 3 6.70444 9.34529 8.31562 0 0 0
66 3 7.38304 10.3499 7.62206 0 0 0
67 3 8.45683 11.0222 8.19364 0 0 0
68 3 8.87129 10.7455 9.48757 0 0 0
69 5 10.1884 11.7047 10.0989 0 0 0
70 1 10.9189 10.6044 11.3267 0 0 0
71 1 12.2577 11.2178 11.7546 0 0 0
72 1 12.8376 10.472 12.9625 0 0 0
81 3 8.18098 9.77348 10.2049 0 0 0
82 3 7.1207 9.08463 9.62288 0 0 0
94 6 7.08622 10.6482 6.6976 0 0 0
95 6 8.93489 11.7466 7.65768 0 0 0
96 6 10.266 10.5351 12.1966 0 0 0
97 6 11.0863 9.61519 10.8994 0 0 0
98 6 12.9548 11.1674 10.9181 0 0 0
99 6 12.0906 12.2615 12.0203 0 0 0
101 6 12.9804 9.42265 12.7053 0 0 0
117 6 8.4207 9.55118 11.1676 0 0 0
118 6 6.65934 8.37489 10.1882 0 0 0
102 6 14.9203 10.9409 12.606 0 0 0
8 3 0.75252 1.98172 -1.57973 0 0 0
9 3 2.30605 1.97708 -2.04381 0 0 0
13 3 3.58783 1.78622 -1.13043 0 0 0
31 5 0.68981 2.5977 -0.679042 0 0 0
32 5 0.593504 0.941275 -1.33194 0 0 0
33 5 2.6142 2.93418 -2.48247 0 0 0
34 5 2.46877 1.22516 -2.83109 0 0 0
41 5 3.95921 2.80953 -0.974577 0 0 0
42 5 4.24081 1.38252 -1.91093 0 0 0
10 3 -0.522698 2.47059 -2.46038 0 0 0
14 3 -2.07131 2.24949 -2.11126 0 0 0
15 4 -3.14456 0.289774 -3.55715 0 0 0
17 4 -2.96442 1.61475 -3.12557 0 0 0
35 5 -0.516506 3.56346 -2.41053 0 0 0
36 5 -0.428119 2.22359 -3.52472 0 0 0
43 5 -2.41925 1.99849 -1.09925 0 0 0
44 5 -2.42898 3.27772 -2.18884 0 0 0
45 5 -3.63945 0.265667 -4.463 0 0 0
48 5 -3.63168 2.254 -3.59369 0 0 0
88 6 3.7909 8.613 -0.456876 0 0 0
100 6 12.1305 10.5467 13.7886 0 0 0
73 1 14.1812 11.0772 13.3965 0 0 0
74 1 14.6663 10.3859 14.6774 0 0 0
75 1 15.9158 11.0727 15.2448 0 0 0
76 1 16.2912 10.4242 16.5842 0 0 0
77 1 17.4224 11.1904 17.2834 0 0 0
78 1 17.5858 10.6655 18.7154 0 0 0
79 1 18.7319 11.3759 19.4418 0 0 0
103 6 14.0498 12.1424 13.5879 0 0 0
104 6 13.8722 10.4304 15.4226 0 0 0
105 6 14.8956 9.34179 14.4611 0 0 0
106 6 16.744 10.9675 14.5428 0 0 0
107 6 15.704 12.1307 15.4001 0 0 0
108 6 15.4168 10.4179 17.235 0 0 0
109 6 16.6097 9.39654 16.407 0 0 0
110 6 18.3506 11.0496 16.7287 0 0 0
111 6 17.1796 12.2526 17.3203 0 0 0
112 6 16.6656 10.8435 19.2725 0 0 0
113 6 17.7897 9.595 18.6929 0 0 0
114 6 19.6797 11.1547 18.9506 0 0 0
115 6 18.5608 12.4523 19.4433 0 0 0
47 5 3.53814 -0.180294 -0.0476746 0 0 0
3 3 -2.26018 -3.00696 0.190935 0 0 0
4 3 -3.40728 -2.8422 -0.884328 0 0 0
6 3 -3.71498 -1.65476 -1.87873 0 0 0
11 3 -2.74714 -1.0328 -2.98366 0 0 0
21 5 -1.51019 -3.52656 -0.42356 0 0 0
23 5 -3.29999 -3.77499 -1.4494 0 0 0
27 5 -4.24175 -0.878559 -1.32315 0 0 0
28 5 -4.51589 -2.13548 -2.44489 0 0 0
37 5 -2.80552 -1.65886 -3.87321 0 0 0
38 5 -1.69501 -1.03569 -2.74037 0 0 0
ITEM: TIMESTEP
150
ITEM: NUMBER OF ATOMS
122
ITEM: BOX BOUNDS pp pp pp
0.0000000000000000e+00 2.0000000000000000e+01
0.0000000000000000e+00 2.0000000000000000e+01
0.0000000000000000e+00 2.0000000000000000e+01
ITEM: ATOMS id type xu yu zu vx vy vz
2 2 1.0052 0.314366 6.217 0 0 0
16 3 3.74698 0.789666 0.176852 0 0 0
19 3 5.07385 0.597632 0.997704 0 0 0
20 4 1.56857 0.11708 5.11436 0 0 0
46 5 3.09472 1.09338 0.992449 0 0 0
51 5 5.26515 1.39763 1.72167 0 0 0
52 5 6.00224 0.346596 0.468086 0 0 0
53 5 4.87682 -0.280798 1.60697 0 0 0
54 6 2.70521 1.79929 5.24597 0 0 0
39 5 -0.104535 0.0196894 3.24526 0 0 0
55 1 2.33485 9.39944 0.797473 0 0 0
56 1 3.703 9.15485 0.169898 0 0 0
57 1 4.62239 8.92939 1.36777 0 0 0
58 2 3.76865 8.35348 2.42076 0 0 0
59 3 4.31112 8.39744 3.73116 0 0 0
60 3 3.48578 8.1193 4.82053 0 0 0
61 3 3.93937 8.22348 6.1293 0 0 0
83 3 6.11272 8.71904 5.33173 0 0 0
84 3 5.6548 8.64987 4.02141 0 0 0
85 1 2.55019 9.17257 2.29598 0 0 0
86 6 1.99287 10.4174 0.610504 0 0 0
87 6 1.61704 8.67896 0.406356 0 0 0
89 6 4.02867 10.0187 -0.410757 0 0 0
90 6 5.43751 8.25913 1.09376 0 0 0
91 6 5.00769 9.90289 1.67372 0 0 0
92 6 2.51758 7.83778 4.68063 0 0 0
116 7 19.643 11.8977 21.5264 0 0 0
120 6 6.35268 8.77359 3.29062 0 0 0
121 6 2.69386 10.1327 2.79129 0 0 0
122 6 1.6734 8.66734 2.69916 0 0 0
119 6 7.11074 8.84307 5.47184 0 0 0
80 5 18.6546 11.0219 21.2074 0 0 0
1 1 2.51632 0.99902 4.71304 0 0 0
18 3 1.34158 -1.11357 4.33483 0 0 0
30 5 0.456287 -1.48854 1.33564 0 0 0
49 5 2.32981 -1.26045 3.87733 0 0 0
50 5 1.22753 -1.8793 5.11253 0 0 0
5 3 -1.60829 -1.88162 1.13679 0 0 0
7 3 -0.249288 -1.90531 2.05756 0 0 0
12 3 0.0236601 -1.05483 3.42893 0 0 0
22 5 -2.50431 -3.86693 0.690738 0 0 0
24 5 -4.23717 -3.17076 -0.454028 0 0 0
25 5 -2.50592 -1.60322 1.69757 0 0 0
26 5 -1.40451 -1.04352 0.495583 0 0 0
29 5 0.0716465 -2.9322 2.27518 0 0 0
40 5 -0.691572 -1.35521 4.2014 0 0 0
62 3 5.25267 8.58035 6.4225 0 0 0
63 3 5.64128 8.71688 7.7692 0 0 0
64 4 4.89345 8.16206 8.60138 0 0 0
93 6 3.25977 8.04843 6.87014 0 0 0
65 3 6.73907 9.41766 8.30744 0 0 0
66 3 7.44702 10.4191 7.63428 0 0 0
67 3 8.50551 11.0877 8.23644 0 0 0
68 3 8.86772 10.8242 9.54857 0 0 0
69 5 10.1553 11.7798 10.2198 0 0 0
70 1 10.9146 10.585 11.337 0 0 0
71 1 12.2535 11.1649 11.8002 0 0 0