ITEM: TIMESTEP
0
ITEM: NUMBER OF ATOMS
122
ITEM: BOX BOUNDS pp pp pp
0.0000000000000000e+00 2.0000000000000000e+01
0.0000000000000000e+00 2.0000000000000000e+01
0.0000000000000000e+00 2.0000000000000000e+01
ITEM: ATOMS id type xu yu zu vx vy vz
2 2 0.688402 0.587551 6.0516 0 0 0
16 3 3.75634 0.707415 0.0704333 -0 0 -0
19 3 5.06147 0.491772 0.91323 0 -0 0
20 4 1.41083 0.26191 5.07961 -0 -0 0
46 5 3.0746 0.855884 0.901684 -0 0 0
51 5 5.19563 1.22106 1.72031 -0 -0 0
52 5 6.01169 0.335589 0.388658 -0 0 -0
54 6 2.59426 1.89723 5.28813 0 0 0
1 1 2.45526 1.06896 4.78105 0 -0 -0
39 5 -0.0975938 0.0120965 3.09001 -0 0 -0
55 1 2.44469 9.35674 0.697991 -0 -0 0
56 1 3.64093 8.648 0.0619445 0 0 0
57 1 4.65331 8.5806 1.20356 0 0 -0
58 2 3.8054 8.32992 2.37659 0 0 -0
59 3 4.38912 8.4303 3.65734 0 -0 0
60 3 3.60061 8.05844 4.7393 0 0 -0
61 3 4.05407 8.16926 6.04595 0 -0 -0
83 3 6.15378 8.92818 5.24643 -0 -0 -0
84 3 5.69595 8.83454 3.93445 -0 -0 0
85 1 2.72464 9.31171 2.20372 0 0 0
86 6 2.38219 10.3906 0.358403 -0 -0 -0
87 6 1.52298 8.82328 0.465024 -0 0 0
90 6 5.37447 7.77908 1.04149 -0 -0 0
91 6 5.14976 9.54885 1.26622 0 -0 0
92 6 2.66092 7.69459 4.5827 0 -0 -0
120 6 6.35345 9.06244 3.19165 0 -0 0
121 6 3.05879 10.2934 2.54076 -0 0 -0
122 6 1.81995 9.02191 2.73738 -0 0 -0
62 3 5.33086 8.65475 6.34223 -0 -0 -0
119 6 7.13106 9.17226 5.37813 -0 0 -0
116 7 19.6532 12.5252 21.4331 -0 0 -0
80 5 18.8337 11.4577 21.2328 0 0 0
53 5 4.87966 -0.450337 1.42831 0 0 0
18 3 1.26288 -1.01717 4.35308 0 0 -0
30 5 0.565717 -1.72591 1.36731 0 -0 -0
49 5 2.27181 -1.14346 3.93851 -0 0 -0
50 5 1.15022 -1.7481 5.16167 -0 -0 -0
29 5 0.0138083 -3.03343 2.42152 0 -0 0
5 3 -1.51965 -2.03427 1.07072 0 -0 -0
7 3 -0.217851 -2.01968 2.07244 -0 0 -0
12 3 -0.00274185 -1.04447 3.37346 0 0 -0
22 5 -2.37049 -4.04399 0.611806 0 0 -0
25 5 -2.4505 -1.76696 1.58005 0 0 0
26 5 -1.28625 -1.22353 0.407473 0 -0 0
40 5 -0.763449 -1.27251 4.12793 0 -0 0
3 3 -1.94925 -3.20951 0.0394085 0 -0 0
63 3 5.70196 8.77297 7.69793 0 0 -0
64 4 4.98774 8.13173 8.49864 -0 0 -0
93 6 3.4016 7.8973 6.7796 -0 -0 0
118 6 6.61695 8.50156 10.154 -0 0 0
65 3 6.74389 9.51366 8.29539 0 0 0
66 3 7.4247 10.5698 7.68647 0 -0 -0
67 3 8.45318 11.2443 8.33762 0 -0 0
68 3 8.80934 10.9261 9.63991 -0 -0 -0
69 5 10.0805 11.8531 10.3812 -0 0 -0
70 1 10.9427 10.5571 11.2956 0 0 -0
71 1 12.2599 11.1462 11.8155 0 -0 0
72 1 12.8714 10.279 12.9278 0 -0 0
81 3 8.09084 9.92935 10.2885 -0 -0 0
82 3 7.08764 9.23341 9.62405 -0 0 0
94 6 7.16332 10.9045 6.76447 0 0 -0
95 6 8.94102 11.9989 7.8556 -0 0 -0
96 6 10.3382 10.2437 12.1447 -0 0 0
97 6 11.1483 9.70601 10.6462 -0 -0 0
98 6 12.9653 11.2319 10.9887 -0 -0 -0
99 6 12.0493 12.1408 12.208 -0 -0 -0
101 6 13.1683 9.31356 12.5173 0 0 -0
117 6 8.2761 9.69569 11.2614 -0 -0 0
102 6 14.906 10.9846 12.794 0 -0 0
8 3 0.694089 1.94096 -1.47306 0 0 -0
9 3 2.23757 2.11454 -1.93283 0 -0 0
13 3 3.53798 1.82675 -1.07009 -0 -0 -0
31 5 0.615644 2.39179 -0.481072 0 0 -0
32 5 0.605293 0.867216 -1.41913 0 0 0
33 5 2.47569 3.1518 -2.19412 -0 -0 -0
34 5 2.43991 1.53327 -2.84357 -0 0 -0
41 5 3.87281 2.8226 -0.745304 -0 0 -0
42 5 4.19716 1.58244 -1.90926 -0 -0 -0
10 3 -0.632695 2.45734 -2.25311 0 -0 -0
14 3 -2.15246 2.10561 -1.8843 0 0 -0
15 4 -3.19198 0.219674 -3.46026 0 0 0
17 4 -3.05486 1.50768 -2.91105 -0 0 0
35 5 -0.687411 3.53905 -2.09631 -0 -0 -0
36 5 -0.562196 2.31866 -3.33782 -0 0 -0
43 5 -2.46112 1.76615 -0.885897 -0 0 0
44 5 -2.56277 3.11634 -1.87502 0 -0 0
45 5 -3.73381 0.257416 -4.33767 -0 0 -0
48 5 -3.77831 2.14587 -3.28374 0 -0 0
89 6 4.03248 9.2099 -0.786092 0 -0 -0
88 6 3.35619 7.64033 -0.242205 0 -0 -0
100 6 12.1311 10.1255 13.7123 -0 -0 -0
73 1 14.0982 10.9847 13.526 -0 -0 0
74 1 14.5726 10.293 14.8133 0 0 -0
75 1 15.73 11.0882 15.4371 -0 0 -0
76 1 16.0599 10.5754 16.8466 0 0 0
77 1 17.176 11.43 17.4644 0 0 0
78 1 17.4814 10.988 18.9022 -0 0 0
79 1 18.5103 11.9371 19.5283 -0 0 -0
103 6 13.8311 12.0139 13.763 -0 -0 0
104 6 13.7461 10.2491 15.522 0 0 0
105 6 14.9063 9.28069 14.5841 -0 0 -0
106 6 16.6105 10.9975 14.8009 0 0 -0
107 6 15.4466 12.1381 15.5071 -0 -0 0
108 6 15.17 10.6467 17.4719 -0 -0 0
109 6 16.3819 9.53536 16.7913 0 0 0
110 6 18.0793 11.3336 16.862 -0 -0 -0
111 6 16.8612 12.4734 17.4745 -0 -0 0
112 6 16.5686 11.0131 19.4977 -0 0 -0
113 6 17.8813 9.97361 18.8969 -0 -0 0
114 6 19.4407 11.8971 18.962 0 0 -0
115 6 18.123 12.9551 19.5178 0 -0 -0
47 5 3.59066 -0.293865 -0.334581 0 0 0
24 5 -4.02437 -3.48019 -0.617339 -0 0 -0
4 3 -3.08319 -3.12754 -1.05829 0 -0 -0
6 3 -3.55238 -1.91008 -1.95482 -0 -0 -0
11 3 -2.69872 -1.13008 -3.05053 0 0 -0
21 5 -1.13133 -3.62908 -0.563865 0 -0 -0
23 5 -2.84687 -3.9937 -1.68835 -0 -0 -0
27 5 -4.14442 -1.22335 -1.34545 0 -0 0
28 5 -4.31752 -2.43062 -2.53378 0 -0 0
37 5 -2.81403 -1.67358 -3.99032 0 -0 -0
38 5 -1.62787 -1.10565 -2.90051 -0 0 -0
ITEM: TIMESTEP
1000
ITEM: NUMBER OF ATOMS
122
ITEM: BOX BOUNDS pp pp pp
0.0000000000000000e+00 2.0000000000000000e+01
0.0000000000000000e+00 2.0000000000000000e+01
0.0000000000000000e+00 2.0000000000000000e+01
ITEM: ATOMS id type xu yu zu vx vy vz
2 2 1.06094 0.486901 5.94372 0.000866701 -0.00277367 0.00211776
16 3 3.71594 0.841442 0.181704 4.53081e-05 0.000718415 0.00012037
19 3 5.0757 0.585982 0.924885 0.000295189 0.000406176 -0.000373044
20 4 1.70907 0.0665684 4.95669 0.000159408 -0.00162096 0.00151768
46 5 3.05779 0.939064 1.03762 0.000314375 0.00066708 0.000309841
51 5 5.45345 1.38126 1.57875 0.0010169 0.000393616 -0.000786024
52 5 5.89147 0.187787 0.311584 -0.000263358 -7.48796e-05 -0.000775052
54 6 3.03969 1.59846 5.04998 0.000739629 -0.0016723 0.00240625
1 1 2.80662 0.766147 4.58588 -0.000250298 -0.000856418 0.00136989
39 5 0.161003 -0.108196 2.97099 0.00188442 -0.000464963 -0.000588754
55 1 2.85178 9.53087 0.68164 0.00032706 -0.0017644 0.000409047
56 1 3.50254 8.21223 0.262963 -0.00213206 -0.00335936 0.00113516
57 1 4.38303 7.87279 1.45996 -0.00210385 -0.00342736 0.00136791
58 2 3.54393 8.26947 2.5984 -0.00112521 -0.0011148 0.00130978
59 3 4.12806 8.32089 3.8773 -0.000820398 -0.000159786 0.00104321
60 3 3.27827 8.13827 4.9612 -0.000526123 0.000208403 0.00127045
61 3 3.74423 8.21381 6.26779 -0.0001436 0.000372712 0.00112091
83 3 5.94672 8.60449 5.4456 -4.97771e-05 -0.000287623 0.000307395
84 3 5.48148 8.53645 4.13981 -0.000563553 -0.000313023 0.000323487
85 1 2.94406 9.55286 2.21198 0.000195018 -0.000660798 0.000285363
86 6 3.40528 10.3745 0.268897 0.00236552 -0.00331978 -0.000122184
87 6 1.813 9.55964 0.354227 0.000616878 -0.000413652 -0.000548714
90 6 4.62544 6.81003 1.48752 -0.00340064 -0.00368603 0.00319147
91 6 5.28293 8.47648 1.3698 -0.00100831 -0.00500469 0.000658325
92 6 2.28967 7.9469 4.79675 -0.00062337 0.000316455 0.00185402
120 6 6.16393 8.65503 3.39602 -0.0006463 -0.0011168 3.00107e-05
121 6 3.58656 10.3755 2.52572 0.000854824 -0.00104411 0.000203158
122 6 1.95232 9.66327 2.65208 0.000333914 0.00032159 0.000425031
62 3 5.08344 8.49635 6.53677 0.000102122 -9.91966e-06 0.000349315
119 6 6.9487 8.71775 5.58693 0.000133388 -0.00109514 -0.000499885
116 7 21.039 12.4458 20.2176 0.00302039 0.00595764 -0.00522099
80 5 19.7647 12.0276 20.4427 0.00316051 0.00449097 -0.00495064
53 5 4.83903 -0.226628 1.6074 0.000297301 0.000694847 -4.84124e-05
18 3 1.40998 -1.21933 4.29187 9.00928e-05 -0.00108328 0.000563727
30 5 0.59955 -1.87106 1.31947 0.000291996 -0.000665863 0.000470234
49 5 2.39788 -1.48516 3.88966 0.000262394 -0.000911134 0.000565872
50 5 1.21441 -1.89244 5.13607 -0.000103302 -0.00148162 0.000272252
29 5 0.0327155 -3.16016 2.40819 -0.000313774 -0.000384875 0.000503616
5 3 -1.52531 -2.16996 1.1079 0.000161908 -0.000464912 0.000128745
7 3 -0.172286 -2.14522 2.04685 4.59765e-05 -0.000414915 0.000266474
12 3 0.141116 -1.14823 3.31476 0.000517662 -0.000105686 0.00012991
22 5 -2.33819 -4.17919 0.587909 0.000380345 -0.000432305 -0.00021515
25 5 -2.42861 -2.03636 1.70988 0.00018879 -0.000705837 0.000247413
26 5 -1.44046 -1.28275 0.505426 -4.74553e-05 -0.000109701 0.000367487
40 5 -0.635761 -1.22614 4.08144 -0.000114685 0.00160188 -0.000333272
3 3 -1.9391 -3.3231 0.033363 0.000321052 -0.000519599 -0.000274905
63 3 5.50863 8.60592 7.86923 0.000397776 -0.00018432 0.000568424
64 4 4.80131 8.0431 8.73338 0.00129091 -0.000545454 0.000655121
93 6 3.07441 8.08048 7.0242 0.000326206 0.000137496 0.00148425
118 6 6.77275 8.20858 10.1403 0.000672684 0.000527859 0.000237562
65 3 6.62825 9.3081 8.34742 0.000554872 9.66955e-05 0.000289687
66 3 7.19654 10.3901 7.67453 0.000224685 -0.000269383 -0.000190122
67 3 8.26304 11.0914 8.21778 0.000241125 0.000207979 -0.000228744
68 3 8.79497 10.7516 9.45242 0.000698959 -7.36972e-06 -0.000395904
69 5 10.1163 11.753 9.98147 0.00059788 0.000312983 -0.00112018
70 1 10.5892 11.0418 11.5677 -0.00145947 0.0033197 0.000794341
71 1 11.7975 11.8416 12.0615 -0.00270141 0.0043838 0.00179705
72 1 12.3566 11.2471 13.3577 -0.00366617 0.00374354 0.00185819
81 3 8.22891 9.68101 10.1424 0.000798496 -0.000135045 -0.000100608
82 3 7.15678 8.98053 9.59711 0.000725985 0.00031431 0.000213223
94 6 6.81457 10.7221 6.79223 0.000341436 0.000589411 3.88952e-05
95 6 8.65746 11.8784 7.70435 -0.000261394 0.000517496 -0.000395929
96 6 9.77279 11.1364 12.2839 -0.00283862 0.00321016 -0.00055043
97 6 10.8724 9.99636 11.4439 -0.000531169 0.00339423 0.00233616
98 6 12.5685 11.8204 11.2915 -0.00198307 0.00449817 0.00263818
99 6 11.4906 12.8734 12.2338 -0.00304668 0.00432992 0.00166909
101 6 12.6897 10.2272 13.1671 -0.0044939 0.00362231 0.00186403
117 6 8.56956 9.38783 11.0547 0.00149005 0.000278566 -0.000459247
102 6 14.2877 12.163 13.0605 -0.00271568 0.00113227 0.00189394
8 3 0.577882 1.92099 -1.36554 -0.000391776 9.33408e-05 0.000171488
9 3 2.12335 2.23691 -1.75739 -0.000443857 0.000800847 0.000489894
13 3 3.41525 2.03338 -0.860512 -0.000401541 0.0010548 0.000650538
31 5 0.419985 2.27413 -0.343184 -0.000673735 -0.000518687 0.000365523
32 5 0.549696 0.841876 -1.37692 -0.000121669 6.15033e-05 -0.000304645
33 5 2.2927 3.30198 -1.95907 -0.00072254 0.000911325 0.000758773
34 5 2.403 1.7194 -2.68765 -0.000131404 0.00113437 0.00039379
41 5 3.58826 3.02154 -0.409585 -0.00101528 0.000925258 0.00129972
42 5 4.14423 1.98734 -1.67474 -0.00020006 0.00196701 0.000759135
10 3 -0.740859 2.4249 -2.17085 -0.000434549 6.48602e-05 0.000176409
14 3 -2.24933 1.92747 -1.97064 -0.000320729 -0.000437636 -0.000375215
15 4 -3.02017 -0.0318564 -3.61388 0.000309846 -0.000865185 -0.000284536
17 4 -3.00025 1.27262 -3.08792 8.20975e-05 -0.000773283 -0.000488108
35 5 -0.895319 3.46789 -1.87769 -0.000810899 -0.000156845 0.000756956
36 5 -0.594124 2.43586 -3.25631 -0.000221788 0.000674795 0.000216631
43 5 -2.61164 1.57637 -0.997721 -0.000597191 -0.000292794 -0.000449164
44 5 -2.74524 2.89734 -1.99986 -0.00056163 -0.000547334 -0.000846894
45 5 -3.43311 -0.0444013 -4.55911 0.000586396 -0.000921828 -0.000375431
48 5 -3.70134 1.86652 -3.56742 0.000161743 -0.000962079 -0.000835507
89 6 4.09373 8.32961 -0.645329 -0.00216496 -0.00559859 0.000996616
88 6 2.73931 7.44533 0.131919 -0.00324238 -0.00238861 0.00257922
100 6 11.5768 11.2379 14.1196 -0.00367428 0.00462775 0.00187363
73 1 13.539 12.0923 13.8494 -0.00281258 0.00241239 0.0019094
74 1 14.1664 11.4414 15.0879 -0.00366891 0.00278024 0.00252959
75 1 15.4101 12.2213 15.533 -0.00120296 0.000678837 -0.000776329
76 1 15.9841 11.6111 16.8184 -0.0021136 0.00350742 0.000852896
77 1 17.4213 12.1025 17.044 0.000928714 -0.00291129 -0.00375915
78 1 17.8398 11.8637 18.5028 0.00180471 0.00208124 -0.00315383
79 1 19.324 12.1962 18.7031 0.00275668 -0.000487133 -0.00531385
103 6 13.1875 13.0924 14.1049 -0.00188927 0.00318648 0.000943109
104 6 13.4362 11.4298 15.8975 -0.00299091 0.00653463 0.00322917
105 6 14.4555 10.4184 14.8472 -0.00687948 0.00159527 0.00415913
106 6 16.1608 12.1745 14.7442 -0.00175816 -0.00374861 -0.00100199
107 6 15.1449 13.2626 15.7201 0.00171081 0.00195357 -0.00343293
108 6 15.3552 11.9087 17.6576 0.000764121 0.0104908 0.000549868
109 6 15.992 10.5234 16.7442 -0.00811129 0.00316932 0.00600874
110 6 18.0914 11.5599 16.3762 -0.00285528 -0.0102981 -0.001723
111 6 17.4797 13.1687 16.8259 0.00624956 -0.00420647 -0.00919472
112 6 17.2439 12.4968 19.1607 0.00385862 0.00577077 -0.00512936
113 6 17.6735 10.8188 18.7638 -0.000427125 0.00375046 0.00114341
114 6 19.936 11.5142 18.1122 0.000985567 -0.00375712 -0.00353812
115 6 19.5152 13.2214 18.3862 0.00451758 -0.00176361 -0.00871742
47 5 3.54902 -0.142991 -0.262288 -0.000181631 0.000811249 5.69414e-05
24 5 -4.0646 -3.49365 -0.580903 0.000208841 -7.70707e-05 -7.83027e-05
4 3 -3.09958 -3.24343 -1.03998 0.000296571 -0.000968706 -0.000358977
6 3 -3.49023 -2.08053 -2.0336 0.000367241 -0.00108055 -0.000422052
11 3 -2.55423 -1.34838 -3.09191 0.000446469 -0.000827656 -3.55532e-05
21 5 -1.12348 -3.73275 -0.578309 0.000550459 -0.000420406 1.52541e-05
23 5 -2.93191 -4.16232 -1.61325 -0.000662692 -0.00141022 -0.000169596
27 5 -4.12949 -1.3796 -1.4945 0.000633341 -0.00109988 -0.000120364
28 5 -4.20781 -2.62724 -2.64774 0.000263623 -0.000819227 -0.000540627
37 5 -2.57791 -1.94775 -4.00382 0.000851309 -0.0010012 7.37902e-05
38 5 -1.50449 -1.28463 -2.85055 0.000315028 -0.000683183 0.000326603
ITEM: TIMESTEP
2000
ITEM: NUMBER OF ATOMS
122
ITEM: BOX BOUNDS pp pp pp
0.0000000000000000e+00 2.0000000000000000e+01
0.0000000000000000e+00 2.0000000000000000e+01
0.0000000000000000e+00 2.0000000000000000e+01
ITEM: ATOMS id type xu yu zu vx vy vz
2 2 0.970682 0.139053 5.9833 -0.00180004 -0.00314799 0.00194576
16 3 3.4842 1.1383 0.455113 -0.000502535 -0.000632608 -0.000664787
19 3 4.94213 0.760017 0.894696 -0.000561231 7.81346e-05 8.79673e-05
46 5 2.9986 1.30827 1.41324 -0.00127046 -0.00182542 -0.000957183
51 5 5.64785 1.54043 1.21461 -0.00118909 0.000318276 0.0010409
52 5 5.42476 0.091541 0.175027 0.000340893 0.000648981 7.78828e-05
54 6 2.79026 1.54088 5.18978 -0.00358593 1.30491e-05 0.00359551
1 1 2.67041 0.714455 4.67526 -0.00281598 0.000817853 0.00196194
90 6 1.78948 6.11638 3.8644 0.00173749 -0.000261093 0.00626245
55 1 2.58829 7.81001 1.31993 -0.00242582 0.00330324 0.00521365
56 1 2.53961 6.38394 1.85504 -0.00462024 0.00253392 0.00385581
57 1 2.68478 6.50338 3.37676 -0.000197758 0.0012709 0.003785
58 2 2.86222 7.92926 3.69232 -0.00126522 0.00113945 0.00399596
59 3 3.65434 8.13851 4.85263 -0.00115719 0.000643781 0.00400946
60 3 3.24033 7.58944 6.06549 -5.98993e-05 -0.000771229 0.00385088
61 3 3.94612 7.79407 7.2468 0.000893722 -0.00178084 0.00347812
83 3 5.53668 9.09691 6.06334 -0.000501374 0.000365219 0.0034662
84 3 4.82077 8.9111 4.88928 -0.000945387 0.000841758 0.00383232
85 1 3.32524 8.54644 2.43252 0.00224852 -0.000947103 0.00454734
86 6 3.13366 7.86158 0.376749 -0.0053035 0.00284555 0.00350119
87 6 1.57829 8.20411 1.20783 -0.00179823 0.0059679 0.00916576
91 6 3.55907 5.93663 3.69874 0.0011913 0.00187467 0.000666488
92 6 2.39149 7.0258 6.10487 0.000530945 -0.00150973 0.00408827
120 6 5.19369 9.36876 4.0622 -0.00159706 0.00167682 0.00385115
121 6 4.38368 8.35806 2.25961 0.00108037 -0.00700062 0.00453662
122 6 3.11145 9.61547 2.40167 0.00750946 6.31902e-05 0.0049226
62 3 5.10938 8.563 7.27775 0.000361394 -0.000648929 0.00319907
88 6 1.60129 5.89998 1.58306 -0.00660616 0.00459073 0.00665638
119 6 6.40804 9.61617 5.999 -0.000693805 0.000406805 0.00376486
80 5 20.6684 11.8544 17.519 0.000719513 -0.00443211 -0.00668032
20 4 1.66742 -0.139052 4.97913 -0.00170231 -0.000966513 0.00177172
39 5 0.0397632 -0.413262 3.10543 -0.000407292 -2.71014e-05 -0.000105922
53 5 4.80271 0.152169 1.7844 -0.000714269 -0.000485563 -0.00032902
18 3 1.53255 -1.41517 4.24566 -0.00020221 -0.000229954 -2.22373e-06
30 5 0.821489 -2.02175 1.24444 0.000145993 0.000288735 -0.000474408
49 5 2.54092 -1.56074 3.8351 -3.47449e-05 0.00182434 -0.000191228
50 5 1.42423 -2.1424 5.05536 0.000515036 -0.00157424 -0.00115935
29 5 0.337605 -3.39045 2.24345 0.00116039 0.000100651 -0.000867492
12 3 0.245381 -1.47475 3.29477 4.39966e-05 -9.70104e-05 -0.000458197
5 3 -1.24705 -2.37722 0.93625 0.000542394 -0.000371802 -0.000758875
7 3 0.056255 -2.37413 1.93978 0.000494168 -3.67379e-06 -0.000491959
22 5 -2.13474 -4.3575 0.50964 -0.000814191 0.000455609 0.0010031
25 5 -2.1796 -2.09656 1.43523 0.000419752 0.000458397 -0.00152896
26 5 -1.0136 -1.55988 0.280155 0.00142916 -0.000958522 -0.00108463
40 5 -0.461907 -1.83953 4.04809 -0.000246453 -0.000533517 -0.000851973
3 3 -1.6756 -3.56128 -0.0867193 0.000217637 -0.000790254 0.000276695
63 3 5.82979 8.67963 8.47636 0.000812387 -2.48142e-05 0.0030692
64 4 5.51379 7.88185 9.38524 0.00265371 -0.00090456 0.0030731
93 6 3.57761 7.36329 8.09338 0.00250108 -0.00375048 0.00311769
65 3 6.90208 9.53713 8.77689 0.000260305 0.000610639 0.00293499
118 6 7.79851 8.11253 10.0539 0.00210634 0.000560074 0.000366689
66 3 7.05965 10.8339 8.27946 -0.00148373 0.00172353 0.00367876
67 3 8.13939 11.6191 8.67195 -0.00205389 0.0015711 0.00325454
68 3 9.07012 11.1255 9.57703 0.000177064 0.000621995 0.000853609
69 5 10.3847 12.0969 10.1385 0.000829207 -0.00100856 0.00114794
70 1 9.62356 12.3922 11.7501 -0.00278606 0.0060548 -0.00171938
71 1 10.5367 13.2604 12.6251 -0.001539 0.00264516 0.000598922
81 3 8.93962 9.83034 10.0502 0.00153977 0.000411299 4.44699e-05
82 3 7.85616 9.05458 9.67046 0.000921578 0.00069452 0.0012497
94 6 6.36392 11.2407 7.65697 -0.00279536 0.000985288 0.00466008
95 6 8.23812 12.5655 8.30797 -0.00272102 0.00227266 0.0044136
96 6 8.67303 12.9074 11.6052 0.000109601 0.0100174 -0.00513871
97 6 9.44025 11.4492 12.2634 -0.00848069 0.00733814 -0.00126139
98 6 10.6742 14.2273 12.1409 -0.00756748 0.00725041 0.00781415
99 6 10.0446 13.4105 13.5866 0.0016754 -0.0066991 0.00360103
117 6 9.63394 9.44728 10.692 0.00255034 0.000593149 -0.00134159
102 6 13.1159 14.3667 13.1539 -0.00497564 0.00872615 0.00996883
8 3 0.288978 1.94338 -1.13863 -0.000576535 0.000518172 0.000542641
9 3 1.75386 2.60251 -1.31058 -0.000795449 0.000832104 0.000526476
13 3 3.0808 2.36006 -0.49234 -0.000454511 -0.000397789 -0.00041638
31 5 0.112921 1.75115 -0.0802754 -0.000278275 -8.90631e-06 0.000464309
32 5 0.41638 1.01206 -1.66568 -0.000376232 0.000831202 7.61453e-05
33 5 1.7754 3.69794 -1.22364 -0.000819505 0.000783953 0.00126875
34 5 2.09095 2.35282 -2.3241 -0.0017821 0.0016732 -3.95124e-05
41 5 3.13804 3.26916 0.116398 0.000607022 -2.36984e-05 -0.00107988
42 5 3.79797 2.49189 -1.31317 -0.00104739 -0.00178773 -0.000972835
10 3 -1.10819 2.54748 -1.67857 -0.000982405 0.000491033 0.00192409
14 3 -2.45822 1.72704 -1.89281 -0.000266073 -0.000189927 0.000479786
17 4 -2.85421 1.03493 -3.16499 0.00107189 5.71645e-05 3.10582e-05
35 5 -1.44607 3.2396 -0.899039 -0.00127625 -0.00202676 0.00399534
36 5 -1.01179 3.15014 -2.58922 -0.00192899 0.00321612 0.00350221
43 5 -2.90669 1.2688 -1.0058 -0.000271729 -0.00101035 -0.000117793
44 5 -3.12488 2.58166 -2.00608 -0.000576852 -0.000465448 0.00059983
48 5 -3.47467 1.57554 -3.78787 0.00207018 0.00021646 -0.000862328
116 7 21.9276 12.2852 17.2429 -0.000166609 0.00202951 0.00063374
89 6 3.38914 5.82794 1.46453 -0.00715276 0.000455244 0.000586345
72 1 11.9109 12.6061 12.8554 0.00260792 0.00732061 -0.00960607
101 6 12.4426 12.467 11.9143 0.00288625 0.0230921 -0.0119893
100 6 11.7678 11.6391 13.3396 0.00833912 0.000226347 -0.0221469
104 6 13.741 12.3083 15.228 0.00556976 -0.0097818 -0.0125428
73 1 12.7779 13.5125 13.7422 -0.000948873 0.000502918 0.000567544
74 1 13.9815 12.7035 14.2406 0.00238858 -0.000350243 -0.00944917
75 1 15.2661 13.5395 14.3104 0.000170738 0.00278198 -0.00565342
76 1 16.2367 12.78 15.2176 0.0012581 0.00203323 -0.00761892
77 1 17.6944 13.2322 15.0813 0.00124769 0.0019801 -0.00715692
78 1 18.4977 12.3956 16.0858 0.000237139 0.000731914 -0.00687535
79 1 19.9835 12.7418 16.1103 0.000972549 -0.00131286 -0.00518153
105 6 14.165 11.8694 13.5629 0.00385267 0.00605043 -0.0170988
106 6 15.6853 13.6456 13.3095 0.000516061 0.00664271 -0.00521035
107 6 15.0663 14.5225 14.7374 -0.00206408 0.000910806 -0.00266892
108 6 15.9153 12.924 16.2493 0.00151798 -0.000150587 -0.00730039
109 6 16.1821 11.7187 14.9762 0.00170418 0.00246405 -0.00994944
110 6 18.0538 13.0407 14.0698 0.00142427 0.00212819 -0.0070384
111 6 17.7803 14.2938 15.3136 0.00139098 0.00173669 -0.00638126
112 6 18.1028 12.5596 17.0877 -0.000766433 0.000133178 -0.00686729
113 6 18.3992 11.3382 15.84 -0.000812391 0.000733101 -0.00764169
114 6 20.464 12.4177 15.1868 0.000716972 -0.000781891 -0.00535789
115 6 20.121 13.814 16.2521 0.0018654 -0.00191553 -0.00293951
47 5 3.15946 0.179727 0.0614474 0.000779102 -0.000508968 -0.00182421
103 6 12.207 13.8644 14.6028 -0.00169202 -0.0124763 0.00501293
15 4 -2.69004 -0.249732 -3.7155 0.000981667 -0.000135825 0.00048988
45 5 -2.9436 -0.247575 -4.71248 0.00142301 -0.000226309 0.000362725
24 5 -3.74866 -3.7977 -0.778691 0.00107738 -0.00194527 -0.000894306
4 3 -2.78327 -3.5122 -1.21383 0.00099964 -0.000864039 -0.000549572
6 3 -3.18013 -2.38252 -2.23874 0.000855324 -0.000320963 0.000474193
11 3 -2.22593 -1.57008 -3.21153 0.000713358 -0.000159382 0.00038353
21 5 -0.853853 -4.02196 -0.656154 -0.000217704 -0.00217725 0.000852816
23 5 -2.5582 -4.41762 -1.78598 0.00201462 -0.000273638 -0.00101143
27 5 -3.91675 -1.7494 -1.75298 0.000788179 -0.000825234 0.00107297
28 5 -3.79461 -2.97172 -2.92548 0.000724881 0.000191461 0.00012591
37 5 -2.20355 -2.13349 -4.14708 -0.000697205 0.000262521 0.000218569
38 5 -1.18566 -1.5066 -2.9487 0.00121061 -0.000897443 -0.000816614
ITEM: TIMESTEP
3000
ITEM: NUMBER OF ATOMS
122
ITEM: BOX BOUNDS pp pp pp
0.0000000000000000e+00 2.0000000000000000e+01
0.0000000000000000e+00 2.0000000000000000e+01
0.0000000000000000e+00 2.0000000000000000e+01
ITEM: ATOMS id type xu yu zu vx vy vz
2 2 -0.202393 -0.515223 6.42215 -0.00292887 -0.00101207 8.82163e-05
16 3 3.57789 1.11935 -0.254319 0.000364527 -0.000381912 -0.00263137
19 3 5.14801 0.999245 -0.198249 0.000734736 0.00152232 -0.00310642
46 5 3.32469 0.838006 0.773612 0.000348619 -0.00359836 -0.00359787
51 5 5.55992 1.36103 0.750168 0.00105381 0.00218595 -0.00342497
52 5 5.75821 1.38329 -1.02872 -0.000994915 0.00282055 -0.00368365
54 6 1.24931 1.42444 6.04965 -0.00509053 -0.000336178 0.000215898
1 1 1.38499 0.692754 5.41035 -0.00351833 -9.61668e-05 0.00015343
90 6 3.25149 5.72384 4.7367 0.0072395 0.00643098 -0.00211791
56 1 1.39306 6.22869 3.71845 0.0014967 -0.003003 0.00361982
57 1 2.68745 6.60822 4.43972 0.000191657 0.00325335 0.0026033
91 6 3.28326 7.24717 3.78912 -0.00616669 0.00951236 0.00292622
88 6 0.962355 5.34063 4.18234 0.00582261 -0.00492 0.00419472
53 5 5.34862 -0.0743264 -0.199659 0.00290781 0.00185298 -0.00353393
41 5 3.16264 3.3205 -0.272461 -0.00267474 -0.000934189 0.004881
89 6 1.55986 6.0573 2.65438 0.001356 -0.00251319 0.003674
47 5 3.34016 0.270015 -0.898282 0.00125048 0.000938407 -0.00470344
55 1 0.474761 7.43513 3.96016 -0.00254545 -0.00674225 0.00565455
58 2 2.17763 7.34172 5.60507 -0.00307945 -0.00463721 0.00649881
59 3 3.11111 7.90585 6.49566 -0.00431763 -0.00121085 0.00547523
60 3 2.86644 7.73323 7.85456 -0.00289656 0.00368702 0.00696739
83 3 5.21602 8.9352 7.07479 -0.00393512 0.001332 -0.000621441
84 3 4.2759 8.57275 6.11801 -0.00497996 -0.00185868 0.00238573
85 1 1.13906 8.23507 5.09291 -0.0065808 -0.00783871 0.00895078
86 6 0.403859 8.04791 3.06128 -0.00321362 -0.00423116 0.00761417
87 6 -0.515821 7.09547 4.26282 -0.00203088 -0.0107888 0.00261619
92 6 1.99715 7.29111 8.15417 -0.00245397 0.00572458 0.0109861
120 6 4.47508 8.76878 5.13829 -0.00718096 -0.00358878 0.00165518
121 6 1.58379 9.14481 4.69025 -0.0106059 -0.003535 0.0137641
122 6 0.413963 8.47667 5.87064 -0.00826482 -0.0143856 0.00926019
119 6 6.0899 9.34776 6.75232 -0.00529297 0.00151896 -0.00316184
20 4 0.619205 -0.421498 5.47856 -0.00313456 -0.000461976 -0.000133051
39 5 -0.533918 -0.640589 3.26341 -0.000883986 -0.00070073 -0.00114496
18 3 0.87993 -1.5391 4.55064 -0.00208126 -0.000305058 -0.00024698
30 5 0.677476 -1.90995 1.40969 -0.000675816 -0.00101272 -0.000145204
49 5 1.91371 -1.31345 4.24538 -0.00217739 0.000575913 0.000504177
50 5 0.908554 -2.40596 5.22289 -0.00211537 -0.000268047 -0.000248854
29 5 0.412105 -3.42515 2.22736 -0.00016731 -0.000630469 -1.47615e-05
12 3 -0.239673 -1.68493 3.41311 -0.00138459 -0.000614818 -0.000538916
7 3 -0.0651195 -2.46444 1.99366 -0.000672505 -0.00101812 -0.000243031
5 3 -1.17589 -2.57827 0.80713 -0.000244393 -0.00117222 -0.000297184
22 5 -2.04819 -4.57157 0.474122 -0.00148426 -0.000534189 0.000304074
25 5 -2.13475 -2.0736 0.97522 -0.000517586 -0.00115459 -0.00141902
26 5 -0.659319 -1.9441 0.13206 -0.000188226 -0.00125709 -0.000185856
40 5 -1.03764 -2.19164 3.96292 -0.00199589 -1.0341e-05 -0.000932986
61 3 3.80393 8.0953 8.81218 -0.000627796 0.00594731 0.004042
62 3 5.01241 8.67274 8.42962 -0.000727964 0.00328872 2.12554e-05
63 3 6.01103 8.8638 9.38924 0.00107993 0.00237731 -0.00173951
64 4 6.04162 8.00742 10.2983 0.000339484 0.00406691 -0.00010199
93 6 3.60126 7.91915 9.796 0.00144748 0.00882152 0.00488851
94 6 5.96074 11.293 8.22744 0.00162023 0.00312803 -0.00233792
65 3 6.9904 9.87107 9.39558 0.00199395 0.00119632 -0.00352118
118 6 8.32505 8.81422 10.6451 0.00279824 -0.00166663 -0.00723743
66 3 6.82041 11.0868 8.73278 0.00126267 0.00115126 -0.00239174
67 3 7.80296 12.0684 8.7771 0.00143885 0.00171858 -0.00173872
68 3 8.9636 11.8655 9.50718 0.000843325 0.000476137 -0.00106139
69 5 10.1319 13.1423 9.58685 0.00124892 -0.000982073 0.000810794
70 1 9.83663 13.5437 11.3224 -0.000723003 0.00385846 -0.000431104
71 1 10.96 14.4331 11.8809 -0.000253288 0.00184156 0.00267056
81 3 9.15169 10.6547 10.1641 0.00141474 -0.000339001 -0.00239656
82 3 8.16264 9.67846 10.1303 0.00228203 -0.000694403 -0.0049154
95 6 7.66138 12.9501 8.2865 0.00140368 0.00291919 -0.000600175
96 6 8.88103 14.0596 11.4131 0.000155778 0.00604661 -0.00250725
97 6 9.7995 12.6345 11.9191 -0.00353537 0.00453373 0.000206544
117 6 10.0097 10.4801 10.6874 0.00080508 0.00049794 -0.00169588
72 1 12.3533 13.8402 11.5883 0.000106948 0.00357621 -0.00089399
101 6 12.6538 14.1344 10.5827 -0.00217956 0.00638852 -0.000720078
100 6 12.3099 12.7522 11.6472 0.00148063 0.00322311 -0.00226547
98 6 10.8948 15.4218 11.4262 -0.00101555 0.00383383 0.0074739
102 6 13.2784 15.3776 12.7947 0.00172451 0.00355714 -0.0021609
106 6 15.7476 15.2519 13.5664 0.00243056 0.00264996 -0.00323017
8 3 -0.00499565 1.74658 -0.575326 -0.000632511 -0.00075134 0.00278541
9 3 1.22331 2.7664 -0.549231 -0.00117788 -0.000611574 0.00067771
13 3 2.75922 2.42265 -0.751199 -0.00114998 0.000357901 0.00126452
31 5 0.038405 1.35322 0.429138 -0.000403222 0.000722778 0.00339571
32 5 0.185389 0.948653 -1.27095 0.000202955 -0.00154952 0.00395807
33 5 1.19449 3.32449 0.397708 -0.000746577 -9.01962e-05 0.000171725
34 5 1.1199 3.49835 -1.35288 -0.00187291 -0.00200343 -0.000375981
42 5 2.92206 2.58664 -1.82669 -0.00127659 0.00425446 0.00189205
10 3 -1.56776 2.05375 -0.63584 -0.000612006 -0.000815247 0.00239708
14 3 -2.56811 1.29608 -1.57106 0.000132052 -0.000826604 0.00182445
17 4 -2.27949 0.863905 -2.9678 0.00140381 -0.000385561 0.00194038
35 5 -1.89832 1.66964 0.329198 -0.000714539 -0.00154767 0.0019483
36 5 -1.92753 3.09396 -0.605959 -0.00133578 -0.000943483 0.00347059
43 5 -3.15903 0.595715 -0.988676 -0.000180233 -0.00111931 0.00118492
44 5 -3.30732 2.07457 -1.76203 0.00025285 -0.000774595 0.00176327
48 5 -2.44655 1.60145 -3.65788 0.00221458 -0.000116489 0.00203194
80 5 21.8827 12.5773 14.6937 0.00348511 0.00439123 -0.00677246
116 7 22.1505 11.2685 14.4339 0.00639176 0.00590455 -0.00910637
114 6 19.6709 11.7457 14.8686 0.00537361 -0.000714974 -0.0100083
99 6 10.8189 14.525 12.9581 0.000531908 -0.00335276 0.0034026
104 6 14.9278 13.1536 11.5201 0.000858513 0.00376229 -0.00426279
74 1 14.8423 14.1403 11.9752 0.00141612 0.0038204 -0.00380019
76 1 17.3198 14.0304 12.7536 0.00184551 0.000789129 -0.000293371
77 1 17.9934 13.7035 14.0967 0.000378325 -0.00104729 -2.91895e-05
78 1 19.5238 13.7855 14.1239 0.000240715 0.00140342 -0.00217367
79 1 20.175 12.3972 14.1553 0.00390082 0.00299765 -0.0075314
105 6 15.0365 14.91 11.2273 0.00107528 0.00369984 -0.0039941
108 6 17.4265 13.1917 12.0657 0.00196927 0.00110747 -0.00075396
109 6 17.7331 14.9386 12.3135 0.00342172 0.000228215 0.00023483
110 6 17.6425 14.4273 14.8249 -0.00037889 -0.00241259 0.000982404
112 6 19.8948 14.3506 13.2684 -0.00218531 0.00490563 -0.000847268
113 6 19.8075 14.3057 15.0397 0.000847085 -0.000524874 -0.00136448
115 6 20.1409 11.9528 13.1609 0.00531634 0.00722153 -0.0095529
73 1 13.4308 14.3224 12.5684 0.00158686 0.00398385 -0.00263986
103 6 13.3272 13.7416 13.4843 0.00222062 0.00362867 -0.00273924
3 3 -1.49293 -3.84339 -0.129225 -0.000401355 -0.00158149 9.63584e-05
75 1 15.8469 14.2604 13.1237 0.0015405 0.00270638 -0.00333161
107 6 15.5724 13.517 13.8706 0.000472023 0.00258648 -0.00367608
111 6 17.6737 12.7167 14.4275 0.00159723 -0.00214292 -0.00195501
15 4 -1.90396 -0.339342 -3.60579 0.00175838 1.28e-05 0.00154786
45 5 -1.79891 -0.174165 -4.61122 0.0018236 0.00057202 0.00172404
24 5 -3.4027 -4.10407 -1.1674 0.0010557 -0.00197471 -0.0025247
4 3 -2.37703 -3.81973 -1.4318 0.00132039 -0.00153904 -0.000980066
6 3 -2.58061 -2.72554 -2.54447 0.00194616 -0.000698393 -0.000372879
11 3 -1.55758 -1.74713 -3.23572 0.00191706 -0.000273633 0.000425506
21 5 -0.615552 -4.35889 -0.547083 -0.000392347 -0.00227262 0.00101301
23 5 -2.0348 -4.72376 -1.94905 0.00262259 -0.000838654 -0.00109108
27 5 -3.54943 -2.26935 -2.38579 0.00188583 -0.000918237 -0.000810596
28 5 -2.78626 -3.38441 -3.38331 0.00297544 -0.000574213 -0.000587595
37 5 -1.57301 -2.17532 -4.23866 0.00158838 0.000736151 7.24155e-05
38 5 -0.495371 -1.85248 -3.02927 0.00211852 -0.000551332 0.000108171
ITEM: TIMESTEP
4000
ITEM: NUMBER OF ATOMS
122
ITEM: BOX BOUNDS pp pp pp
0.0000000000000000e+00 2.0000000000000000e+01
0.0000000000000000e+00 2.0000000000000000e+01
0.0000000000000000e+00 2.0000000000000000e+01
ITEM: ATOMS id type xu yu zu vx vy vz
46 5 3.86891 1.46367 -0.215711 0.000217604 0.00359361 -0.000328825
51 5 5.82157 2.42021 -0.933861 -0.00118568 0.00149103 -0.002885
54 6 -1.18922 0.271856 6.97667 -0.00734184 -0.00610247 0.00474924
1 1 -0.772706 -0.187019 6.21613 -0.0064165 -0.0047979 0.00431931