ITEM: TIMESTEP
0
ITEM: NUMBER OF ATOMS
122
ITEM: BOX BOUNDS pp pp pp
0.0000000000000000e+00 2.0000000000000000e+01
0.0000000000000000e+00 2.0000000000000000e+01
0.0000000000000000e+00 2.0000000000000000e+01
ITEM: ATOMS id type xu yu zu vx vy vz
16 1 0.942899 0.557102 1.29542 0 0 -0
17 1 2.26004 1.14621 1.81525 -0 0 0
18 1 2.87164 0.279064 2.92751 0 0 -0
19 1 4.09818 0.984928 3.5259 0 -0 0
20 1 4.57266 0.293162 4.81315 -0 -0 0
21 1 5.72993 1.08837 5.43714 0 -0 -0
42 6 0.338396 0.243708 2.14448 -0 -0 -0
44 6 2.96544 1.23191 0.988449 0 -0 0
45 6 2.04952 2.14081 2.20769 -0 0 -0
46 6 2.13123 0.125273 3.71196 -0 0 0
48 6 4.90605 0.985075 2.79403 0 -0 -0
49 6 3.83092 2.01403 3.76306 -0 0 -0
50 6 3.74608 0.249068 5.52185 -0 -0 -0
52 6 6.61065 0.99743 4.80113 -0 0 -0
53 6 5.44665 2.13823 5.50688 0 0 0
15 5 0.0806731 1.853 0.380902 0 0 0
113 5 6.26594 10.2578 5.66265 -0 -0 0
83 4 6.80788 10.22 6.53999 0 -0 -0
104 5 9.43765 12.319 6.66257 0 0 0
105 5 7.18588 8.32683 6.00956 -0 0 -0
43 6 1.14847 -0.294103 0.646084 -0 0 0
47 6 3.16879 -0.686322 2.51702 0 0 0
51 6 4.90644 -0.719137 4.5839 -0 -0 0
63 6 -1.72362 -0.304499 1.26123 0 0 -0
64 6 -3.38274 -1.49871 0.153918 -0 0 -0
27 3 -1.90896 -0.0708111 0.288275 0 -0 0
22 1 6.05949 0.575713 6.84679 0 0 -0
54 6 5.16956 0.647583 7.47198 0 0 0
58 6 6.56787 1.01434 9.4978 0 0 -0
92 5 5.97621 6.51942 9.3823 0 -0 -0
56 6 8.07926 1.33286 6.86229 0 0 0
91 5 7.15391 6.00639 8.31128 0 -0 0
23 1 7.17594 1.43007 7.46448 -0 -0 -0
24 1 7.48073 0.98841 8.90247 -0 0 -0
25 1 8.51013 1.93715 9.52843 0 0 0
26 5 8.8324 1.45861 11.2333 0 0 0
32 6 -7.61977 0.389387 -9.64034 0 0 0
57 6 6.86161 2.4736 7.47407 0 0 -0
60 6 9.44067 1.89616 8.96253 0 0 -0
61 6 8.12356 2.95542 9.5172 0 -0 -0
62 7 9.65286 2.52541 11.4333 -0 -0 -0
90 5 7.62996 5.95598 10.6116 -0 0 0
89 5 8.86919 6.37112 9.43607 0 -0 -0
67 6 -6.94379 0.290927 -7.45789 0 -0 0
116 5 6.22153 12.1461 6.71679 -0 0 -0
74 3 6.44783 8.08988 8.04509 0 0 -0
95 5 5.85565 8.77642 8.65452 -0 0 -0
96 5 5.68281 7.56924 7.46607 -0 0 0
72 3 6.91732 6.8724 8.94146 0 -0 0
71 3 8.05114 6.79055 10.0393 0 -0 0
73 3 8.4805 7.96585 11.0706 -0 -0 0
75 3 9.78211 7.98058 12.0726 -0 0 -0
76 3 10.694 11.9411 8.52722 0 0 0
77 3 12.2375 12.1148 8.06744 0 0 0
78 3 9.36719 12.4575 7.7473 -0 0 0
79 3 7.30129 8.87017 6.94944 -0 0 -0
82 3 7.84745 12.1057 8.11613 -0 0 0
85 4 6.94501 11.5079 7.08936 0 0 0
93 5 7.54956 8.23309 11.5798 -0 -0 0
94 5 8.71393 8.77651 10.4073 0 0 0
97 5 10.0134 6.9669 12.4221 -0 -0 0
98 5 10.5659 8.27392 11.3676 -0 -0 -0
99 5 10.6156 12.3917 9.51928 -0 -0 -0
100 5 10.6053 10.8673 8.58093 -0 -0 -0
101 5 12.4756 13.1521 7.80625 0 0 -0
102 5 12.4398 11.5336 7.15664 0 -0 0
106 5 8.37217 8.89463 7.0993 0 0 -0
107 5 9.90267 10.0127 13.0894 -0 -0 0
111 5 7.53883 11.7661 9.11449 -0 -0 0
112 5 7.43711 13.1164 8.12557 -0 0 -0
114 5 13.0746 10.8558 10.9018 0 0 -0
109 5 13.8727 12.8227 9.25507 0 0 0
81 3 13.5379 11.8269 8.93016 -0 -0 0
84 3 13.7563 10.7075 10.0705 -0 -0 0
87 3 15.0614 10.4917 10.9133 -0 0 0
110 5 14.1971 11.5827 8.09097 -0 -0 -0
115 5 13.5906 9.70623 9.66543 0 -0 -0
119 5 15.1955 11.2209 11.7206 -0 0 -0
120 5 16.0117 10.3358 10.3888 0 -0 0
121 5 14.8796 9.54952 11.4282 -0 0 -0
55 6 6.38099 -0.464442 6.7918 -0 -0 0
103 5 9.31245 13.5392 7.90427 -0 -0 0
1 1 -7.55593 -0.644778 -9.30178 0 -0 -0
31 1 -7.27628 -0.690912 -7.79603 0 0 -0
33 6 -8.47686 -1.17925 -9.53549 0 -0 -0
59 6 7.88007 -0.0261878 8.89771 0 -0 0
68 6 -8.18069 -0.982663 -7.26295 -0 -0 -0
35 6 -5.96767 -0.78798 -10.7857 -0 -0 -0
37 6 -4.85135 -0.449316 -8.73284 0 -0 -0
2 1 -6.35859 -1.35123 -9.93825 0 0 0
3 1 -5.34636 -1.41823 -8.79649 0 -0 0
4 2 -6.19401 -1.67119 -7.62375 0 -0 -0
34 6 -6.64185 -2.35902 -10.2434 -0 0 -0
36 6 -4.624 -2.21853 -8.95918 -0 0 -0
66 6 -3.64644 -0.937474 -6.80846 0 -0 -0
12 3 -2.57541 0.569755 -2.3136 0 0 -0
13 3 -1.54693 1.24432 -1.66251 -0 -0 -0
14 3 -1.19057 0.926022 -0.3603 0 0 -0
40 6 -2.83694 0.904509 -3.23553 0 -0 0
41 6 -1.05922 1.99894 -2.14453 -0 0 -0
80 3 9.99716 8.95625 13.3733 0 0 0
117 5 12.2716 8.85664 13.939 -0 -0 0
69 1 12.4556 11.0695 14.7804 -0 0 -0
70 2 10.6882 10.5894 16.0507 0 0 -0
86 3 11.2625 8.98357 14.3532 0 -0 -0
88 4 11.4108 10.263 15.0791 0 -0 -0
108 5 9.23621 8.72877 14.1277 -0 -0 0
118 5 11.1493 8.25309 15.1621 -0 0 0
122 6 12.5948 11.898 15.2871 -0 0 -0
38 6 -7.33817 -2.30759 -5.41747 -0 0 -0
6 3 -6.39871 -1.94313 -5.26093 -0 -0 -0
39 6 -6.59762 -2.10448 -3.22064 -0 0 -0
5 3 -5.61047 -1.57068 -6.3429 0 -0 -0
7 3 -5.9453 -1.83209 -3.95426 -0 0 -0
8 3 -4.6688 -1.34588 -3.65793 0 0 -0
9 3 -4.29774 -1.22752 -2.30222 0 -0 0
10 4 -5.01177 -1.86899 -1.50151 0 -0 -0
11 3 -3.256 -0.48658 -1.70473 0 0 -0
28 3 -2.91216 -0.766806 -0.3761 0 0 -0
29 3 -3.84606 -1.07195 -4.75374 0 -0 0
30 3 -4.30386 -1.16574 -6.06571 0 -0 -0
65 6 -2.86891 -0.82739 -4.62207 0 0 0
ITEM: TIMESTEP
1000
ITEM: NUMBER OF ATOMS
122
ITEM: BOX BOUNDS pp pp pp
0.0000000000000000e+00 2.0000000000000000e+01
0.0000000000000000e+00 2.0000000000000000e+01
0.0000000000000000e+00 2.0000000000000000e+01
ITEM: ATOMS id type xu yu zu vx vy vz
16 1 0.589486 1.04085 1.56771 -0.00145209 0.00328883 0.000801392
17 1 1.79769 1.8408 2.06139 -0.00269272 0.00435443 0.00179794
18 1 2.35619 1.2483 3.35884 -0.00365163 0.0037497 0.00187388
19 1 3.54062 2.0927 3.84737 -0.00278188 0.0024254 0.00187114
20 1 4.16476 1.44845 5.09097 -0.00367877 0.00290853 0.00256399
21 1 5.41482 2.22349 5.52694 -0.00115696 0.000695883 -0.000839396
42 6 -0.226751 1.13485 2.28422 -0.00282763 0.0031786 -0.000538238
44 6 2.56908 1.81829 1.29182 -0.00197376 0.00445605 0.00264137
45 6 1.49105 2.87287 2.23189 -0.00303863 0.00430398 0.00164681
46 6 1.57685 1.24264 4.12115 -0.00364664 0.00467205 0.00189887
48 6 4.29058 2.15613 3.059 -0.00267222 0.00104092 0.00187109
49 6 3.19191 3.09541 4.09603 -0.00182329 0.0032277 0.000795977
50 6 3.43549 1.44981 5.90144 -0.00296585 0.00683937 0.00323283
52 6 6.16698 2.15644 4.74099 -0.00176077 -0.00393028 -0.000983697
53 6 5.15955 3.27026 5.69653 0.00186399 0.00194927 -0.00368658
15 5 0.115704 1.7526 -0.0181113 0.000602335 0.000298181 -0.00110898
113 5 6.56724 9.95469 5.44131 0.000585578 -0.00093968 -0.000368699
83 4 6.98012 9.96726 6.38654 0.000310993 -0.000882761 -0.000279393
104 5 9.40579 12.4363 6.74387 -0.0002237 0.000670917 0.000216825
105 5 7.42278 8.05128 5.99672 0.00085678 -0.00101635 7.24684e-05
43 6 0.872973 -0.00446262 1.44342 -0.000523592 0.00336362 0.00233722
47 6 2.68733 0.227277 3.17077 -0.00449307 0.00361946 0.00191356
51 6 4.44618 0.421173 4.85962 -0.00699601 0.00170373 0.0043453
63 6 -1.42851 -0.614873 1.05356 0.00148263 0.000274207 -0.00045388
64 6 -3.22423 -1.79534 0.138789 0.000673911 0.000524507 0.000241105
27 3 -1.76978 -0.321248 0.141628 0.000796219 -0.00013927 -9.73972e-05
22 1 5.97943 1.62883 6.82373 -0.00210337 0.0037244 0.00084325
54 6 5.35525 1.95218 7.65696 0.000829266 0.0107354 0.000337525
58 6 7.25049 2.53998 9.14883 0.0039589 0.00573917 -0.00512169
92 5 5.93576 6.50531 9.419 0.000212941 -0.00011003 -9.52809e-05
56 6 8.08588 1.5344 6.38449 -0.00307403 -0.00997216 -0.00147204
91 5 7.06741 5.83537 8.38623 -0.000647827 -0.00139755 -0.000178942
23 1 7.42433 2.10138 7.04041 0.000806435 -0.00277072 -0.00361277
24 1 7.8375 1.88514 8.50434 0.00183431 0.00217406 -0.00313797
25 1 9.32635 2.19747 8.70235 0.00274993 -0.000424033 -0.00529587
26 5 9.76119 2.03954 10.4445 0.00316649 0.00459443 -0.00496583
32 6 -6.59447 0.375681 -9.72936 0.00237588 -0.00330053 -0.000115786
57 6 7.50044 3.16194 6.80118 0.00604735 -0.00425163 -0.00897521
60 6 9.92881 1.50018 8.11956 0.000925301 -0.00367042 -0.00346433
61 6 9.53318 3.21643 8.37511 0.00450227 -0.00177725 -0.00870725
62 7 11.0415 2.43818 10.2184 0.00307364 0.00598478 -0.00523217
90 5 7.66227 5.81976 10.5881 0.000370789 -0.00044289 -0.000207443
89 5 8.87718 6.26591 9.42186 0.000547058 -0.000442614 2.06687e-05
67 6 -6.41313 0.375039 -7.47261 0.000863996 -0.00102996 0.000215991
116 5 6.29895 11.8657 6.43237 0.000164635 -0.00098025 -0.000835778
74 3 6.51004 7.91802 7.96641 0.000364373 -0.00110021 -0.000426096
95 5 5.87107 8.61886 8.50592 0.000640005 -0.00112652 -0.000111348
96 5 5.79225 7.37175 7.35213 0.000255047 -0.000836634 -0.000545119
72 3 6.90078 6.75471 8.95955 0.000299656 -0.000976782 -0.000359134
71 3 8.06129 6.67563 10.0332 0.000318692 -0.000535732 -0.000272076
73 3 8.47477 7.82896 11.1078 0.000162208 -0.000478122 0.000126276
75 3 9.82777 7.85452 12.0468 4.85983e-05 -0.000424853 0.000260115
76 3 10.5778 11.9211 8.63458 -0.000392959 8.95357e-05 0.000170009
77 3 12.1232 12.2372 8.24274 -0.000445575 0.000797392 0.000488838
78 3 9.259 12.425 7.82932 -0.000436349 5.9411e-05 0.000176049
79 3 7.44609 8.65068 6.90857 0.000447989 -0.000845395 -3.38074e-05
82 3 7.75063 11.9272 8.02938 -0.000320601 -0.000448535 -0.000374475
85 4 6.99996 11.2719 6.91217 8.43627e-05 -0.000789846 -0.000485534
93 5 7.57157 7.96185 11.7101 0.000186438 -0.000719749 0.000241473
94 5 8.55914 8.71647 10.5057 -4.86523e-05 -0.000125171 0.000362803
97 5 10.0336 6.83964 12.4078 -0.000305247 -0.000395551 0.000494749
98 5 10.5993 8.12942 11.3194 0.000294043 -0.000673711 0.000462509
99 5 10.4198 12.2742 9.65696 -0.000674596 -0.000521867 0.000364313
100 5 10.5496 10.842 8.62313 -0.000122212 5.7442e-05 -0.000305918
101 5 12.2925 13.3023 8.04109 -0.00072376 0.000908157 0.000757237
102 5 12.4029 11.7198 7.31247 -0.000132264 0.0011305 0.000393087
106 5 8.49572 8.7145 7.15028 0.000315832 -0.000699456 0.000332895
107 5 10.1597 9.89165 12.9714 0.00187973 -0.000472878 -0.000594057
111 5 7.38825 11.5761 9.00229 -0.000597097 -0.000303087 -0.000448858
112 5 7.25453 12.897 7.99993 -0.000564072 -0.000558934 -0.000848966
114 5 13.0579 10.9396 11.0379 0.000312924 0.000666883 0.000311239
109 5 13.588 13.0219 9.59073 -0.00101655 0.000923316 0.00129828
81 3 13.4151 12.0338 9.13964 -0.000403323 0.00105267 0.000650333
84 3 13.7159 10.8418 10.1818 4.33981e-05 0.000717765 0.000120909
87 3 15.0758 10.5861 10.9245 0.000294068 0.00040654 -0.000373226
110 5 14.1441 11.988 8.32542 -0.000201239 0.00196425 0.000758882
115 5 13.5487 9.85738 9.7379 -0.000183089 0.000809964 5.95025e-05
119 5 15.4541 11.3814 11.5781 0.00101662 0.000394532 -0.000788557
120 5 15.8913 10.1876 10.311 -0.000265342 -7.59458e-05 -0.00077442
121 5 14.8392 9.77367 11.6073 0.000297776 0.000696607 -4.63486e-05
55 6 5.96983 0.53993 6.77018 -0.00808059 0.00357365 0.0061158
103 5 9.1044 13.4679 8.12271 -0.000814032 -0.000162674 0.000757256
1 1 -7.14857 -0.467857 -9.31722 0.000327723 -0.00173833 0.000418087
31 1 -7.05579 -0.447275 -7.78691 0.000199805 -0.000640391 0.000295457
33 6 -8.18744 -0.437861 -9.64429 0.000619102 -0.000369581 -0.000529604
59 6 7.65408 0.84832 8.78532 -0.000335148 0.00394316 0.00108455
68 6 -8.04736 -0.337231 -7.34636 0.000341215 0.000356274 0.00043858
35 6 -5.90812 -1.66895 -10.6458 -0.00218501 -0.00558776 0.00100149
37 6 -4.71745 -1.52465 -8.63122 -0.00102536 -0.00502605 0.000655808
2 1 -6.49885 -1.78661 -9.73721 -0.00215216 -0.00334054 0.00114047
3 1 -5.61784 -2.12761 -8.541 -0.00212781 -0.00343071 0.00136796
4 2 -6.45601 -1.73109 -7.40186 -0.00113408 -0.00110199 0.00131439
34 6 -7.26262 -2.55295 -9.86838 -0.0032716 -0.00235806 0.0025799
36 6 -5.37629 -3.19059 -8.51432 -0.00345379 -0.00369759 0.00318922
66 6 -3.83636 -1.3422 -6.60521 -0.000659014 -0.00108319 1.49401e-05
12 3 -2.80392 0.38904 -2.32509 0.000229887 -0.000270034 -0.000187836
13 3 -1.73801 1.09096 -1.78158 0.000241768 0.000206222 -0.000222992
14 3 -1.2051 0.750525 -0.547523 0.000697823 -1.32554e-05 -0.000390475
40 6 -3.18667 0.721413 -3.20689 0.000346841 0.000596732 3.86954e-05
41 6 -1.3447 1.87888 -2.29444 -0.000261755 0.000513946 -0.000393032
80 3 10.1405 8.85152 13.3149 0.000517011 -0.000115156 0.000124079
117 5 12.3974 8.516 13.8898 0.000262391 -0.000911176 0.000563571
69 1 12.8045 10.7676 14.5863 -0.000262934 -0.00085282 0.00136891
70 2 11.0594 10.4864 15.9446 0.000857319 -0.00278154 0.00211516
86 3 11.4093 8.78106 14.2921 8.84663e-05 -0.00108905 0.000559119
88 4 11.7076 10.067 14.9572 0.000151567 -0.00162418 0.00151433
108 5 9.3637 8.77305 14.0817 -0.000114889 0.00158613 -0.00033868
118 5 11.2142 8.10764 15.1361 -0.000104584 -0.00148791 0.000266284
122 6 13.037 11.6 15.0506 0.000723254 -0.00166557 0.00240747
38 6 -7.70858 -2.05906 -5.20342 -0.000616322 0.000285723 0.00185447
6 3 -6.72024 -1.86619 -5.03918 -0.000520601 0.00018822 0.00127319
39 6 -6.92307 -1.92656 -2.97619 0.000339617 9.70508e-05 0.00148206
5 3 -5.87127 -1.68072 -6.12323 -0.0008214 -0.000157512 0.00104319
7 3 -6.25381 -1.79125 -3.73273 -0.000131665 0.000347685 0.00112152
8 3 -4.91497 -1.50663 -3.46404 0.000111283 -1.86981e-05 0.000344591
9 3 -4.48947 -1.39765 -2.13161 0.000408141 -0.000195866 0.000559801
10 4 -5.1957 -1.96224 -1.26773 0.00130795 -0.000565318 0.000645124
11 3 -3.37065 -0.694408 -1.6531 0.000559666 9.3891e-05 0.000288704
28 3 -2.8413 -1.02246 -0.403879 0.000724877 0.000309747 0.000212213
29 3 -4.05238 -1.39584 -4.55551 -4.63302e-05 -0.000279519 0.000298794
30 3 -4.51813 -1.46305 -5.86115 -0.000566044 -0.000295505 0.000316292
65 6 -3.05053 -1.28109 -4.4145 0.000138854 -0.00107832 -0.00052044
ITEM: TIMESTEP
2000
ITEM: NUMBER OF ATOMS
122
ITEM: BOX BOUNDS pp pp pp
0.0000000000000000e+00 2.0000000000000000e+01
0.0000000000000000e+00 2.0000000000000000e+01
0.0000000000000000e+00 2.0000000000000000e+01
ITEM: ATOMS id type xu yu zu vx vy vz
16 1 -0.372163 2.40695 1.73256 -0.0020437 0.00536313 -0.00158277
17 1 0.540464 3.25604 2.62703 -0.00120158 0.00299459 -0.00011199
18 1 1.9402 2.64079 2.80181 0.00202973 0.00768414 -0.00866568
19 1 2.7762 3.50119 3.75961 -0.000836182 -1.34768e-06 0.000552671
20 1 3.99521 2.68343 4.20065 0.00267482 -6.72285e-05 -0.00995112
21 1 5.25747 3.54432 4.32553 0.000389918 0.00267114 -0.00555801
44 6 0.639754 4.24891 2.18854 -0.00665018 0.00649145 0.00626484
45 6 0.0630567 3.34546 3.60314 0.00176546 -0.00515042 0.00197089
46 6 1.83713 1.63057 3.20014 0.00697995 0.0023765 -0.0209134
48 6 3.09456 4.40438 3.23708 -0.00517331 0.00731422 0.0103089
49 6 2.19454 3.77388 4.64146 -0.000863173 -0.0131119 0.00424156
50 6 3.76331 2.21831 5.15934 0.00601787 -0.00961265 -0.0138751
52 6 5.69402 3.69183 3.33743 0.000993566 0.0065472 -0.00481844
53 6 5.02746 4.50851 4.77946 -0.00180464 0.000662375 -0.00265973
43 6 -0.585619 1.4702 2.24539 -0.00652072 0.00661531 -0.00101601
47 6 2.47546 2.60842 1.85307 0.00150075 0.0222453 -0.00969602
51 6 4.19921 1.90163 3.46833 0.00399288 0.00717727 -0.0174624
56 6 8.03707 3.01739 4.06857 0.00120888 0.00243943 -0.00658794
57 6 7.78173 4.28363 5.3034 0.000887835 0.0016401 -0.0055997
42 6 -1.30876 2.94149 1.56805 0.000447962 0.00840779 -0.00449693
113 5 7.05059 9.75282 5.29001 0.00134306 -0.000229805 0.000383022
116 5 6.52286 11.579 6.21031 0.0020271 0.000225037 -0.000892522
83 4 7.30519 9.75283 6.2865 0.000942985 -0.00011869 0.000500357
105 5 7.78915 7.87016 5.85631 -0.000707303 0.000306131 0.000225213
63 6 -0.358594 -0.559318 0.707247 0.0025892 0.000645378 -0.00117131
64 6 -2.20339 -1.88152 0.073534 0.0020578 0.00064728 0.000689318
27 3 -1.04736 -0.174784 0.0603347 0.00155318 0.000401929 0.000208297
22 1 6.22547 2.78054 5.23004 0.00107466 0.00170278 -0.00730805
54 6 5.90943 2.93075 6.26262 0.00110184 -0.000692482 -0.00701568
92 5 6.24694 6.19884 9.21978 0.00105386 -0.00195236 -0.000923394
55 6 6.16258 1.71878 4.99229 0.00181953 0.00215512 -0.00987509
58 6 8.09983 2.56321 7.09015 -0.00100071 -0.000404565 -0.00652589
91 5 7.43874 5.58401 8.21179 0.00208368 -0.000303335 -0.000939416
23 1 7.68554 3.22091 5.08048 0.000953948 0.00192593 -0.00665599
24 1 8.48685 2.38482 6.08768 4.20783e-05 0.000557363 -0.00659843
25 1 9.97857 2.70775 6.103 0.000644232 -0.00107751 -0.00492091
26 5 10.6666 1.81088 7.50561 0.000794955 -0.00449315 -0.00685565
60 6 10.4471 2.37739 5.17547 0.000386187 -8.9258e-05 -0.00527651
61 6 10.1323 3.77795 6.24331 0.00132926 -0.00169245 -0.00237931
62 7 11.9274 2.23149 7.22082 3.76179e-05 0.00140475 -0.000293828
90 5 7.85496 5.64717 10.5153 -0.000821355 0.000361009 0.000913163
89 5 9.13633 5.97378 9.3472 -0.000242516 -0.00226482 0.000862214
71 3 8.3166 6.43909 9.91548 0.00020243 -0.000834283 0.000259296
59 6 8.3725 1.3266 5.8528 -0.000759492 0.000611347 -0.00768083
32 6 -6.90205 -2.1124 -9.61079 -0.0046492 0.00251045 0.0036055
67 6 -5.63519 -1.61117 -7.74069 0.00111377 -0.00669927 0.0045349
74 3 6.81453 7.6208 7.76548 0.000845429 -0.000339438 0.000454385
95 5 6.08127 8.25409 8.2561 0.000842855 -0.000822612 0.00111344
96 5 6.19639 7.03479 7.07927 0.000648541 0.000241676 9.65925e-05
104 5 8.99106 13.1507 7.40225 -0.00190764 0.00322085 0.00341723
72 3 7.21181 6.48766 8.7861 0.000991778 -0.000876132 -0.000553758
73 3 8.74747 7.62482 10.9351 0.000515883 -0.000373263 -0.000791136
75 3 10.0512 7.62682 11.938 0.000439067 -2.77126e-05 -0.000484915
76 3 10.289 11.9475 8.85845 -0.000561274 0.000526522 0.000513281
77 3 11.7548 12.6053 8.68753 -0.000777486 0.000847584 0.000516676
78 3 8.89301 12.5517 8.31533 -0.000966593 0.000508778 0.00186913
79 3 7.76879 8.43313 6.79196 0.00069839 -0.000136914 0.000393524
82 3 7.54147 11.7329 8.10404 -0.000282864 -0.000134408 0.000451728
85 4 7.14319 11.039 6.83386 0.00103563 8.6623e-05 1.48978e-05
93 5 7.81481 7.9086 11.4324 0.000397264 0.000445587 -0.00154976
94 5 8.98306 8.44076 10.2781 0.00139426 -0.000923982 -0.00110968
97 5 10.3349 6.61062 12.2403 0.00107571 5.92609e-05 -0.000848846
98 5 10.8148 7.98033 11.2419 5.82217e-05 0.000266576 -0.000506912
99 5 10.1116 11.7571 9.91692 -0.000271584 2.38257e-07 0.000433622
100 5 10.4158 11.0148 8.33342 -0.000350221 0.000825175 6.89966e-05
102 5 12.0939 12.353 7.67525 -0.00174543 0.00167611 -4.66757e-05
106 5 8.81008 8.49603 7.05223 0.00119993 -0.000891051 -0.00082538
107 5 10.0364 9.58751 13.1042 -0.000395127 -4.13153e-05 -0.00010871
111 5 7.09335 11.2756 8.99165 -0.000265613 -0.000961931 -0.000139567
112 5 6.87602 12.5885 7.99031 -0.000589662 -0.000388925 0.000617841
114 5 12.9963 11.3115 11.4146 -0.00125832 -0.00181391 -0.000938103
80 3 10.2421 8.52574 13.2927 3.27974e-05 -0.000106663 -0.000450773
109 5 13.1333 13.2732 10.1224 0.000593539 5.50261e-05 -0.00104296
81 3 13.0793 12.3654 9.51086 -0.000439731 -0.000341226 -0.000384988
84 3 13.4824 11.142 10.4565 -0.000488322 -0.000595946 -0.00064567
87 3 14.9402 10.7634 10.8966 -0.000551802 9.65961e-05 9.97274e-05
110 5 13.7987 12.5009 8.69243 -0.00101609 -0.0017521 -0.000953041
115 5 13.1569 10.1837 10.0624 0.000795375 -0.000468688 -0.0018121
119 5 15.6448 11.5436 11.2198 -0.00117535 0.000321254 0.00107465
120 5 15.4248 10.0972 10.176 0.000345186 0.000694074 6.87653e-05
121 5 14.8003 10.1529 11.7844 -0.000698966 -0.00050108 -0.000340196
101 5 11.7765 13.701 8.77097 -0.000820479 0.000805742 0.00123451
103 5 8.55547 13.2471 9.09201 -0.00126288 -0.00198451 0.00393474
1 1 -7.43271 -2.18524 -8.66066 -0.00220484 0.00317479 0.00504083
31 1 -6.69445 -1.44604 -7.55083 0.00210541 -0.000830279 0.00448156
33 6 -8.45182 -1.81017 -8.75408 -0.00151088 0.00586687 0.00848652
68 6 -6.93 -0.381295 -7.566 0.00714914 0.000237175 0.00473539
2 1 -7.44547 -3.61805 -8.14109 -0.00470725 0.00244243 0.00384171
34 6 -8.38046 -4.11523 -8.40042 -0.00676148 0.00459111 0.0067101
35 6 -6.59424 -4.15445 -8.5548 -0.00734946 0.000180663 0.000675637
37 6 -6.37642 -4.05823 -6.32301 0.00115597 0.0021294 0.000508462
3 1 -7.27308 -3.5138 -6.62109 -0.000247682 0.00131638 0.00367215
4 2 -7.12892 -2.08729 -6.29338 -0.00141293 0.00113857 0.00401181
36 6 -8.14692 -3.93225 -6.12072 0.00186411 -0.000330478 0.00610421
15 5 0.412018 2.08384 0.13894 0.000627021 -0.000913073 0.0010044
12 3 -2.91321 0.832949 -1.72235 -0.00137796 0.00173095 0.00353572
13 3 -1.82789 1.61151 -1.33192 -0.00201928 0.00158937 0.00315572
14 3 -0.904355 1.11573 -0.421438 9.51433e-05 0.000596708 0.000857951
40 6 -3.60315 1.24253 -2.34933 -0.00265278 0.00093951 0.00441357
41 6 -1.72008 2.55487 -1.70113 -0.00261278 0.00228413 0.00428432
117 5 12.5386 8.43841 13.8328 -8.88174e-05 0.00181927 -0.000209813
69 1 12.6686 10.7107 14.6751 -0.00279259 0.000834095 0.00201382
70 2 10.9677 10.1361 15.982 -0.00177621 -0.00311128 0.00198716
86 3 11.5297 8.58257 14.2434 -0.000214448 -0.000225919 3.33275e-05
88 4 11.6649 9.85779 14.9782 -0.00168359 -0.000951631 0.00181364
108 5 9.53467 8.16074 14.0454 -0.000285547 -0.000484524 -0.000861498
118 5 11.4213 7.85312 15.0512 0.000574491 -0.0015721 -0.00111396
122 6 12.7887 11.5369 15.19 -0.00357903 3.59938e-05 0.00366643
38 6 -7.58901 -2.99103 -3.88566 0.000715465 -0.00167144 0.00417005
6 3 -6.7437 -2.4221 -3.92494 8.83448e-05 -0.000884416 0.00389655
39 6 -6.40803 -2.64085 -1.89699 0.00269615 -0.00375058 0.00316653
66 6 -4.79887 -0.638434 -5.93317 -0.00163887 0.00160309 0.00384849
5 3 -6.33327 -1.87143 -5.13771 -0.0011654 0.00055639 0.00402146
7 3 -6.04035 -2.20994 -2.74384 0.00107705 -0.00181444 0.00351296
8 3 -4.88079 -1.43481 -2.71458 0.000534419 -0.000672599 0.00322029
9 3 -4.16098 -1.3133 -1.51603 0.00092237 3.8675e-05 0.00310879
10 4 -4.48103 -2.1085 -0.606236 0.00269595 -0.000794187 0.00311873
11 3 -3.0846 -0.459288 -1.21714 0.000368488 0.000673617 0.0029841
28 3 -2.13702 -0.942983 -0.31695 0.000921295 0.000748715 0.00145283
29 3 -4.45518 -0.902696 -3.93047 -0.000359688 0.000223725 0.00341774
30 3 -5.17013 -1.09409 -5.10425 -0.000914385 0.00074322 0.00384618
65 6 -3.58561 -0.381057 -3.99661 -0.000522816 0.000204328 0.00367925
ITEM: TIMESTEP
3000
ITEM: NUMBER OF ATOMS
122
ITEM: BOX BOUNDS pp pp pp
0.0000000000000000e+00 2.0000000000000000e+01
0.0000000000000000e+00 2.0000000000000000e+01
0.0000000000000000e+00 2.0000000000000000e+01
ITEM: ATOMS id type xu yu zu vx vy vz
17 1 0.976091 4.43937 1.89816 2.7909e-06 0.00199712 0.00267358
18 1 2.37493 3.89206 1.55678 -9.25004e-05 0.0040993 -0.00149117
19 1 3.44227 4.33497 2.56423 0.000702794 0.0048028 -0.00266053
20 1 4.85819 4.17363 1.97816 0.000792046 0.00450008 -0.0031135
21 1 5.84944 4.26744 3.14174 0.000758359 0.00330421 -0.00234472
44 6 0.883334 5.44867 1.49664 -0.00103716 0.00385841 0.00800369
45 6 0.850483 4.47315 2.98089 0.00123336 -0.00377909 0.00318339
46 6 2.35303 2.80185 1.54942 0.00143716 0.00385617 -0.00310002
48 6 3.2874 5.38006 2.8319 0.000741303 0.00449078 -0.00279909
49 6 3.33042 3.71684 3.45439 0.000880955 0.00490485 -0.00250286
50 6 4.94995 3.1979 1.50102 7.9803e-05 0.00433614 -0.00337857
52 6 5.74515 5.24583 3.61163 0.00118391 0.00293417 -0.00166982
53 6 5.56987 3.5027 3.86493 -0.000264245 0.00270624 -0.0031979
47 6 2.66128 4.25524 0.569684 -0.00252353 0.00725494 -0.00100616
51 6 5.05632 4.96108 1.25012 0.000701879 0.00419258 -0.00347175
22 1 7.32625 4.05099 2.78468 0.00126483 0.00208268 0.000814789
54 6 7.43782 3.2738 2.02854 0.00175507 0.0036112 -0.000783266
55 6 7.7527 4.98919 2.42819 0.00235242 0.0021619 0.00259843
15 5 0.147607 3.14064 -0.424049 0.00114276 -0.000786257 0.000644352
56 6 7.60609 4.22748 4.90465 0.000172605 -0.00418297 0.00195636
57 6 7.69506 2.57263 4.30484 0.00229262 -0.00261823 -0.00363645
23 1 7.98554 3.60237 4.10011 0.000619902 -0.00138918 -2.6632e-05
24 1 9.51499 3.72787 4.13506 0.000599864 0.00129342 -0.00256516
25 1 10.1801 2.34885 4.24475 0.00434228 0.00278262 -0.00609841
60 6 9.71229 1.76731 5.03894 0.0060748 0.000177397 -0.00715094
61 6 10.0761 1.82248 3.29617 0.00522868 0.00512322 -0.0075719
59 6 9.78509 4.31006 5.017 0.00125525 0.000729353 -0.00247336
16 1 -0.136825 3.55134 1.31368 -7.93406e-05 0.0037688 -0.000422638
43 6 -0.174512 2.63841 1.90483 -0.00244055 0.00438813 0.000157138
42 6 -1.09442 4.06301 1.40633 0.000679783 0.0056763 -0.00217623
116 5 7.5399 11.6024 6.33569 0.00214082 -0.000241102 0.00195715
113 5 8.19835 9.82912 5.38742 0.00184374 0.000484216 0.00162397
83 4 8.09152 9.66381 6.39236 0.00182859 -7.12392e-05 0.00145951
105 5 8.42693 7.8319 5.75631 0.00173742 0.000680845 -8.58177e-05
63 6 0.0599942 0.472635 0.628836 0.000734764 0.000284317 -0.00178391
64 6 -1.61149 -1.20827 0.58633 0.00266857 -0.00170958 -0.0076025
27 3 -0.812172 0.650029 0.130264 0.00135743 -0.00039447 -0.00245023
92 5 6.59566 5.89963 8.83143 0.00104414 -0.00199259 -0.00254094
58 6 9.87961 4.24015 3.24442 -0.00179488 0.00352379 -0.0022146
91 5 7.96704 5.27724 8.05395 0.00259573 -0.000864243 -0.00114357
26 5 11.9274 2.51375 4.65177 0.00424775 0.00456406 -0.00684118
62 7 12.1354 1.17904 4.48584 0.00579387 0.0049983 -0.00456613
90 5 7.94571 5.44501 10.4806 -0.0014409 -0.000465049 0.000252194
89 5 9.37993 5.64193 9.45732 -0.000348639 -0.00217218 0.00098709
71 3 8.50484 6.16456 9.87082 -0.00037278 -0.00154278 4.50732e-05
72 3 7.62202 6.18312 8.5669 0.00132584 -0.00155594 -0.00101796
97 5 10.4244 6.58788 12.2168 -9.934e-05 -0.000572992 -1.92437e-05
95 5 6.44866 7.71995 7.59156 0.00193859 -0.00105889 -0.0011104
96 5 7.23307 6.60169 6.60631 0.00329533 -0.000698739 -0.000685236
74 3 7.42197 7.26865 7.44455 0.002063 -0.000760509 -0.000495537
104 5 8.0631 13.1048 9.38434 -0.00139756 -0.000993703 0.00334629
73 3 8.82692 7.43186 10.8012 -0.000160723 -0.00117142 -0.000336124
75 3 9.93626 7.54507 11.9894 -0.000617595 -0.000989631 -0.000251001
76 3 9.98542 11.7586 9.4176 -0.000697903 -0.000840921 0.00281167
77 3 11.2165 12.7762 9.45542 -0.00123604 -0.000675728 0.000739488
78 3 8.42185 12.064 9.35737 -0.00067514 -0.000876706 0.00234556
79 3 8.44141 8.25597 6.76107 0.00205955 -0.000356065 0.000300436
82 3 7.42203 11.3016 8.42334 0.000100927 -0.000947919 0.00177332
85 4 7.71101 10.8673 7.02748 0.0013937 -0.00049634 0.00187246
93 5 7.86928 7.94038 10.9642 -0.000401786 -0.00115458 -0.00148176
94 5 9.34632 8.06277 10.1254 -4.2879e-05 -0.00134544 -0.000251536
98 5 10.6753 8.1064 11.4085 -0.000596504 -0.000940313 -8.9673e-05
99 5 10.0273 11.3615 10.4204 -0.000534129 0.000648317 0.00344706
100 5 10.1757 10.9633 8.71873 0.000180503 -0.00166029 0.0040053
102 5 11.1148 13.5211 8.66345 -0.00193858 -0.00199933 -0.000285406
106 5 9.50364 8.15037 6.96582 0.00226341 -0.000614755 3.41474e-05
107 5 9.46237 9.36384 13.2629 -0.000861833 -0.000673554 -0.00120273
111 5 6.83351 10.5962 9.00273 -0.00021996 -0.00124371 0.00113836
112 5 6.68034 12.0784 8.23337 0.000229212 -0.000889193 0.00171238
114 5 13.3115 10.8397 10.775 0.000342719 -0.00352161 -0.0035361
80 3 9.75586 8.3191 13.4108 -0.00142492 -0.000606804 -0.00055444
109 5 13.1614 13.3236 9.72697 -0.00273348 -0.000969318 0.00495008
81 3 12.7522 12.4273 9.24989 -0.00120248 0.000326015 0.0012995
115 5 13.3255 10.2721 9.1022 0.00117657 0.000873296 -0.00459744
103 5 8.09059 11.6829 10.3233 -0.000843454 -0.00150641 0.00192258
84 3 13.5657 11.1203 9.74709 0.000342892 -0.000405409 -0.00260163
87 3 15.1348 10.9911 9.80732 0.000741288 0.00148255 -0.00315049
110 5 12.9167 12.5898 8.17422 -0.00132822 0.00430658 0.00193889
119 5 15.543 11.3395 10.7622 0.00115026 0.00217217 -0.00348494
120 5 15.7516 11.382 8.98505 -0.00105628 0.00281416 -0.0037771
121 5 15.33 9.91644 9.79501 0.00294413 0.00180163 -0.00358425
32 6 -9.55888 -2.06043 -6.98523 -0.00215824 -0.00397325 0.00728954
101 5 11.1873 13.323 10.4089 -0.000796558 -0.000196666 0.000257721
1 1 -9.50417 -2.59732 -6.03799 -0.00204056 -0.00645332 0.00569484
31 1 -8.8011 -1.73203 -4.97881 -0.00610304 -0.00707643 0.00908371
33 6 -10.5048 -2.86987 -5.70228 -0.00188295 -0.0104029 0.00276669
68 6 -9.51599 -1.36734 -4.24057 -0.00833818 -0.0122143 0.00931394
2 1 -8.63848 -3.8576 -6.18058 0.00207861 -0.00322286 0.00409876
34 6 -9.12083 -4.69295 -5.67157 0.0062209 -0.00493708 0.00541996
67 6 -8.29254 -0.898617 -5.46263 -0.00857969 -0.00296969 0.0131541
35 6 -8.45907 -4.10512 -7.22747 0.00191519 -0.00337325 0.00426733
12 3 -3.18388 1.10256 -1.23147 0.00144975 0.000956357 -0.00277224
13 3 -2.20774 2.08944 -1.1898 0.00128955 0.00184422 -0.00128051
14 3 -1.02685 1.87114 -0.497274 0.000778114 0.000554141 -0.00077355
40 6 -4.05987 1.31303 -1.70631 0.0019459 0.00287776 -0.00300439
41 6 -2.36699 2.98216 -1.65439 0.00116018 0.00324067 0.00033234
117 5 11.9057 8.6887 14.2536 -0.00218653 0.000596955 0.000551127
69 1 11.3763 10.6898 15.4216 -0.00361155 -7.95195e-05 0.000167473
70 2 9.78317 9.48156 16.4246 -0.00298161 -0.00110395 4.17546e-05
86 3 10.8702 8.46204 14.5531 -0.00211859 -0.000298384 -0.000285382
88 4 10.6079 9.57691 15.4839 -0.00320345 -0.000468682 -0.000191255
108 5 8.95654 7.80975 13.9563 -0.00206375 -3.47773e-05 -0.000958515
118 5 10.8924 7.59204 15.2213 -0.00222158 -0.000250533 -0.000281102
122 6 11.2403 11.4196 16.0629 -0.00520573 -0.000324771 0.000268291
3 1 -7.34065 -3.49204 -5.45474 0.00101759 0.00344511 0.00259977
4 2 -7.83245 -2.63901 -4.36545 -0.00385285 -0.00517328 0.0074392
36 6 -6.83604 -4.37993 -5.07313 0.00910212 0.00601708 -0.00275839
38 6 -7.96344 -2.72893 -1.82715 -0.00280811 0.00593871 0.0117121
6 3 -7.10386 -2.2717 -2.13179 -0.00325131 0.00374486 0.00741827
37 6 -6.68845 -2.9372 -6.12881 -0.00534993 0.0111801 0.00278797
39 6 -6.33846 -2.12062 -0.199885 0.00131202 0.00965537 0.00516007
66 6 -5.56049 -1.16853 -4.85727 -0.00844897 -0.00435322 0.00121609
5 3 -6.88463 -2.07233 -3.49058 -0.00483082 -0.00155298 0.00584373
7 3 -6.15461 -1.92006 -1.1827 -0.000871543 0.0063193 0.00416981
8 3 -4.9598 -1.32033 -1.57241 -0.00091731 0.0033117 -0.00034104
9 3 -3.94911 -1.14329 -0.621758 0.00101549 0.00218019 -0.00221851
10 4 -3.89312 -2.01184 0.274421 0.000117077 0.00366511 -0.000670523
11 3 -2.9813 -0.128046 -0.607212 0.00206498 0.000999674 -0.0039883
28 3 -1.79288 -0.332929 0.0970947 0.00220091 -0.000770969 -0.00520931
29 3 -4.78562 -1.02139 -2.92533 -0.00431361 0.00083562 -0.00113119
30 3 -5.73684 -1.37983 -3.87564 -0.00571993 -0.00226292 0.00213445
65 6 -3.92381 -0.587545 -3.25251 -0.00557351 0.000535755 -0.00393937
ITEM: TIMESTEP
4000
ITEM: NUMBER OF ATOMS
122
ITEM: BOX BOUNDS pp pp pp
0.0000000000000000e+00 2.0000000000000000e+01
0.0000000000000000e+00 2.0000000000000000e+01
0.0000000000000000e+00 2.0000000000000000e+01
ITEM: ATOMS id type xu yu zu vx vy vz
17 1 1.14692 4.83169 1.51837 0.00107665 0.00439937 0.004151
18 1 2.6046 5.07529 1.08212 -9.83916e-05 0.00398395 -0.000568216
19 1 3.10935 6.47859 1.48768 0.0017175 0.00518928 -0.00591352
20 1 4.59052 6.74366 1.11062 0.000386553 0.00262691 -0.0118979