ITEM: TIMESTEP
0
ITEM: NUMBER OF ATOMS
122
ITEM: BOX BOUNDS pp pp pp
0.0000000000000000e+00 2.0000000000000000e+01
0.0000000000000000e+00 2.0000000000000000e+01
0.0000000000000000e+00 2.0000000000000000e+01
ITEM: ATOMS id type xu yu zu vx vy vz
16 1 1.0037 0.582266 1.11377 0 0 0
17 1 2.30491 1.23069 1.58959 0 0 0
18 1 2.73459 0.504722 2.93805 0 0 0
19 1 4.0358 1.15314 3.41387 0 0 0
20 1 4.46549 0.427177 4.76233 0 0 0
21 1 5.7667 1.0756 5.23815 0 0 0
22 1 6.19638 0.349633 6.58661 0 0 0
42 6 0.244082 0.687357 1.84993 0 0 0
44 6 3.06453 1.1256 0.853423 0 0 0
45 6 2.13431 2.28176 1.77969 0 0 0
46 6 1.97497 0.609813 3.67421 0 0 0
48 6 4.79542 1.04805 2.6777 0 0 0
49 6 3.8652 2.20422 3.60397 0 0 0
50 6 3.70587 0.532268 5.49849 0 0 0
52 6 6.52631 0.970507 4.50198 0 0 0
53 6 5.59609 2.12667 5.42825 0 0 0
56 6 8.25721 0.892962 6.32626 0 0 0
113 5 5.99855 10.3348 5.97345 0 0 0
116 5 7.03085 12.3855 6.55572 0 0 0
43 6 1.1743 -0.468807 0.923664 0 0 0
47 6 2.9052 -0.546351 2.74794 0 0 0
51 6 4.63609 -0.623896 4.57222 0 0 0
55 6 6.29704 -0.709461 6.32548 0 0 0
63 6 -0.853377 -0.715524 0.83627 0 0 0
64 6 -2.98142 -1.90637 0.250323 0 0 0
54 6 5.36682 0.446703 7.25175 0 0 0
91 5 6.36755 6.61826 8.705 0 0 0
23 1 7.49759 0.998053 7.06243 0 0 0
24 1 7.85733 0.264068 8.33986 0 0 0
25 1 9.22848 0.920509 8.88671 0 0 0
26 5 9.61862 0.0868158 10.4271 0 0 0
32 6 -8.41571 0.433369 -8.88336 0 0 0
57 6 7.32698 2.04913 7.25253 0 0 0
58 6 7.09771 0.369159 9.07603 0 0 0
60 6 9.9881 0.815418 8.15054 0 0 0
61 6 9.05788 1.97158 9.07681 0 0 0
62 7 10.7799 0.719195 10.7609 0 0 0
90 5 7.94977 6.38565 10.4116 0 0 0
35 6 -6.26261 0.882794 -9.64636 0 0 0
37 6 -5.34134 0.472481 -7.55044 0 0 0
72 3 6.4831 7.51253 9.33502 0 0 0
74 3 6.19734 8.77355 8.62921 0 0 0
92 5 5.77584 7.34759 10.1909 0 0 0
95 5 6.25815 9.60995 9.31968 0 0 0
96 5 5.14112 8.70532 8.26902 0 0 0
71 3 7.9022 7.31151 9.93148 0 0 0
73 3 8.27554 8.4082 10.9888 0 0 0
75 3 9.64868 8.28834 11.6213 0 0 0
76 3 10.9313 11.7944 8.69514 0 0 0
77 3 12.288 11.6017 8.08494 0 0 0
78 3 9.81227 11.666 7.55878 0 0 0
79 3 7.0996 9.08083 7.42442 0 0 0
80 3 9.91254 9.26927 12.7995 0 0 0
82 3 8.37688 11.7117 8.12232 0 0 0
83 4 6.81384 10.3418 6.71861 0 0 0
85 4 7.37375 11.5102 7.0209 0 0 0
89 5 8.62465 7.42661 9.20705 0 0 0
93 5 7.45239 8.31639 11.8098 0 0 0
94 5 8.18201 9.41522 10.5448 0 0 0
97 5 9.78816 7.20016 12.0293 0 0 0
98 5 10.3711 8.40343 10.8969 0 0 0
99 5 10.7911 12.7457 9.14818 0 0 0
100 5 10.7315 10.9962 9.4044 0 0 0
101 5 12.4178 12.3918 7.30466 0 0 0
102 5 12.4282 10.6503 7.63191 0 0 0
103 5 9.9573 12.4063 6.90997 0 0 0
104 5 9.99844 10.6335 7.06966 0 0 0
105 5 7.03879 8.24443 6.73395 0 0 0
106 5 8.20177 9.06791 7.74852 0 0 0
107 5 9.81901 10.2763 12.3555 0 0 0
109 5 13.3303 12.8783 9.58954 0 0 0
111 5 8.27104 11.0107 9.00971 0 0 0
112 5 8.23667 12.6631 8.57536 0 0 0
114 5 12.454 10.8481 10.8226 0 0 0
117 5 12.0389 9.2332 12.5401 0 0 0
81 3 13.3458 11.861 9.12592 0 0 0
84 3 13.4782 10.8249 10.239 0 0 0
87 3 14.5361 11.0842 11.28 0 0 0
110 5 14.44 11.8459 8.6134 0 0 0
115 5 13.5636 9.81566 9.84642 0 0 0
119 5 14.3958 12.0356 11.733 0 0 0
120 5 15.5055 11.0032 10.7569 0 0 0
121 5 14.5309 10.36 12.0708 0 0 0
1 1 -7.78593 -0.461852 -8.83924 0 0 0
31 1 -7.66473 -0.92909 -7.35701 0 0 0
33 6 -8.23396 -1.18657 -9.4426 0 0 0
59 6 8.02794 -0.787005 8.14976 0 0 0
67 6 -7.8445 -0.0854532 -6.71206 0 0 0
68 6 -8.40003 -1.70223 -7.10882 0 0 0
2 1 -6.36371 -0.198145 -9.28394 0 0 0
3 1 -5.51163 -0.479665 -8.12001 0 0 0
4 2 -6.28685 -1.42894 -7.24942 0 0 0
34 6 -6.1356 -0.795023 -10.1452 0 0 0
36 6 -4.59933 -0.946483 -8.40248 0 0 0
15 5 0.497676 1.48909 -0.461542 0 0 0
12 3 -2.82573 0.350785 -2.4107 0 0 0
13 3 -1.6644 0.983164 -2.07692 0 0 0
14 3 -0.991754 0.577874 -0.863134 0 0 0
40 6 -3.28216 0.591253 -3.25559 0 0 0
41 6 -1.2788 1.7162 -2.68022 0 0 0
69 1 12.9294 9.89 14.9682 0 0 0
70 2 10.8954 10.868 14.8895 0 0 0
86 3 11.3316 9.06825 13.396 0 0 0
88 4 11.5803 10.099 14.4427 0 0 0
108 5 9.19008 9.15418 13.524 0 0 0
118 5 11.41 8.11108 13.7086 0 0 0
122 6 13.0974 10.5142 15.7179 0 0 0
6 3 -6.7766 -1.63602 -4.91335 0 0 0
38 6 -7.77168 -1.83526 -5.17815 0 0 0
39 6 -7.01022 -1.83178 -2.83078 0 0 0
5 3 -5.85915 -1.3786 -5.98667 0 0 0
7 3 -6.34891 -1.58567 -3.65059 0 0 0
8 3 -4.99737 -1.4668 -3.30534 0 0 0
9 3 -4.55448 -1.46631 -1.91112 0 0 0
10 4 -5.18743 -2.07163 -1.07867 0 0 0
11 3 -3.26847 -0.76804 -1.56677 0 0 0
27 3 -1.4257 -0.401921 -0.0435627 0 0 0
28 3 -2.58703 -1.0343 -0.377336 0 0 0
29 3 -4.07992 -1.20938 -4.37866 0 0 0
30 3 -4.50761 -1.25973 -5.64142 0 0 0
65 6 -3.08484 -1.01014 -4.11386 0 0 0
66 6 -3.8463 -1.01362 -6.46123 0 0 0
ITEM: TIMESTEP
25
ITEM: NUMBER OF ATOMS
122
ITEM: BOX BOUNDS pp pp pp
0.0000000000000000e+00 2.0000000000000000e+01
0.0000000000000000e+00 2.0000000000000000e+01
0.0000000000000000e+00 2.0000000000000000e+01
ITEM: ATOMS id type xu yu zu vx vy vz
16 1 1.0444 0.618714 1.09474 0 0 0
17 1 2.33504 1.24672 1.60917 0 0 0
18 1 2.74164 0.528846 2.90471 0 0 0
19 1 4.03442 1.15114 3.42543 0 0 0
20 1 4.45045 0.441175 4.71983 0 0 0
21 1 5.74234 1.07443 5.22435 0 0 0
22 1 6.15578 0.363488 6.51036 0 0 0
42 6 0.27146 0.750795 1.85125 0 0 0
44 6 3.11708 1.13013 0.862285 0 0 0
45 6 2.16941 2.30309 1.81123 0 0 0
46 6 1.95448 0.642394 3.64748 0 0 0
48 6 4.82171 1.03588 2.6843 0 0 0
49 6 3.87557 2.20763 3.6323 0 0 0
50 6 3.66892 0.556403 5.46775 0 0 0
52 6 6.53028 0.960223 4.48218 0 0 0
53 6 5.58331 2.13174 5.43358 0 0 0
56 6 8.24016 0.888068 6.26947 0 0 0
113 5 6.01498 10.4679 5.72384 0 0 0
116 5 6.48703 12.4027 6.50309 0 0 0
43 6 1.22469 -0.438615 0.901608 0 0 0
47 6 2.90023 -0.528726 2.69995 0 0 0
51 6 4.61535 -0.616141 4.51915 0 0 0
55 6 6.32717 -0.693348 6.31424 0 0 0
63 6 -1.0682 -0.825242 0.828361 0 0 0
64 6 -3.02805 -1.85132 0.149007 0 0 0
54 6 5.38029 0.479007 7.26454 0 0 0
91 5 6.15228 6.27314 8.63434 0 0 0
23 1 7.4471 1.00223 7.00576 0 0 0
24 1 7.82876 0.2746 8.28106 0 0 0
25 1 9.08153 0.918197 8.83199 0 0 0
26 5 9.19288 0.188705 10.4526 0 0 0
32 6 -8.11439 0.549374 -8.79135 0 0 0
57 6 7.2838 2.05811 7.21919 0 0 0
58 6 7.04347 0.379146 9.02836 0 0 0
60 6 9.95529 0.703981 8.21521 0 0 0
61 6 8.94804 1.99269 8.94864 0 0 0
62 7 9.92128 1.28447 10.7619 0 0 0
90 5 7.19102 6.11607 10.7034 0 0 0
35 6 -6.13054 0.801968 -9.67934 0 0 0
37 6 -5.31101 0.424482 -7.57751 0 0 0
72 3 6.22728 7.21027 9.21478 0 0 0
74 3 5.88153 8.4643 8.30916 0 0 0
92 5 5.30088 7.0741 9.79807 0 0 0
95 5 5.50481 9.29676 8.91631 0 0 0
96 5 4.95568 8.11339 7.85134 0 0 0
71 3 7.54476 6.94388 10.0883 0 0 0
73 3 8.20468 8.05439 11.0945 0 0 0
75 3 9.65816 8.05977 11.8488 0 0 0
76 3 10.9404 11.8684 8.3956 0 0 0
77 3 12.5197 11.8249 7.99978 0 0 0
78 3 9.654 12.0745 7.41653 0 0 0
79 3 6.7466 8.99659 7.07685 0 0 0
80 3 10.1011 9.11682 13.0545 0 0 0
82 3 8.10467 12.166 7.8921 0 0 0
83 4 6.57774 10.3968 6.58225 0 0 0
85 4 7.04907 11.668 6.95099 0 0 0
89 5 8.23711 6.47181 9.38983 0 0 0
93 5 7.3978 8.20625 11.8097 0 0 0
94 5 8.28691 8.90987 10.4652 0 0 0
97 5 9.91777 7.03545 12.1341 0 0 0
98 5 10.3291 8.32213 11.0227 0 0 0
99 5 10.8416 12.6037 9.19814 0 0 0
100 5 10.7996 10.8558 8.75481 0 0 0
101 5 12.8168 12.6766 7.38484 0 0 0
102 5 12.7363 10.961 7.35742 0 0 0
103 5 9.74119 13.0318 6.89771 0 0 0
104 5 9.67213 11.3273 6.633 0 0 0
105 5 6.37323 8.46206 6.20313 0 0 0
106 5 7.79169 8.74214 7.0954 0 0 0
107 5 10.1768 10.1287 12.6385 0 0 0
109 5 14.0189 12.9471 9.1539 0 0 0
111 5 7.77281 11.8972 8.89263 0 0 0
112 5 7.8897 13.2352 7.85841 0 0 0
114 5 13.124 11.3503 11.1002 0 0 0
117 5 12.3473 8.78837 13.4356 0 0 0
81 3 13.7526 11.8883 9.02934 0 0 0
84 3 13.9015 11.0667 10.4116 0 0 0
87 3 15.0896 11.1669 11.434 0 0 0
110 5 14.5265 11.5265 8.35152 0 0 0
115 5 13.8355 9.98431 10.2432 0 0 0
119 5 14.9135 11.9385 12.1913 0 0 0
120 5 16.1308 11.209 11.0909 0 0 0
121 5 15.0511 10.2297 11.9821 0 0 0
1 1 -7.67853 -0.432206 -8.85223 0 0 0
31 1 -7.59094 -0.966215 -7.43076 0 0 0
33 6 -8.23569 -1.11433 -9.49598 0 0 0
59 6 8.02107 -0.780611 8.09208 0 0 0
67 6 -7.76785 -0.132417 -6.75072 0 0 0
68 6 -8.33226 -1.75342 -7.28175 0 0 0
2 1 -6.27018 -0.229821 -9.35194 0 0 0
3 1 -5.45026 -0.514756 -8.11397 0 0 0
4 2 -6.22746 -1.47126 -7.29052 0 0 0
34 6 -6.04149 -0.933396 -10.1553 0 0 0
36 6 -4.49491 -0.926394 -8.43904 0 0 0
15 5 0.541643 1.42503 -0.432146 0 0 0
12 3 -2.80824 0.415747 -2.27262 0 0 0
13 3 -1.60919 0.993422 -1.90856 0 0 0
14 3 -0.931818 0.565067 -0.772786 0 0 0
40 6 -3.30676 0.815863 -3.06284 0 0 0
41 6 -1.22172 1.74878 -2.47464 0 0 0
69 1 13.1118 10.0573 15.274 0 0 0
70 2 11.1716 11.1197 15.2351 0 0 0
86 3 11.4211 9.00973 13.9538 0 0 0
88 4 11.8448 10.1523 14.812 0 0 0
108 5 9.39609 9.12819 13.8951 0 0 0
118 5 11.2979 8.23956 14.7199 0 0 0
122 6 13.4722 10.7283 15.894 0 0 0
6 3 -6.71409 -1.71475 -4.86658 0 0 0
38 6 -7.70352 -1.90496 -5.01303 0 0 0
39 6 -6.94404 -1.81949 -2.80029 0 0 0
5 3 -5.83202 -1.48082 -5.94303 0 0 0
7 3 -6.26688 -1.68617 -3.55716 0 0 0
8 3 -4.93292 -1.44618 -3.27191 0 0 0
9 3 -4.48405 -1.37618 -1.95088 0 0 0
10 4 -5.13475 -1.97986 -1.08886 0 0 0
11 3 -3.32541 -0.682531 -1.56679 0 0 0
27 3 -1.49234 -0.468967 -0.0227505 0 0 0
28 3 -2.66991 -1.0796 -0.416727 0 0 0
29 3 -4.04384 -1.34694 -4.34005 0 0 0
30 3 -4.48358 -1.32623 -5.63345 0 0 0
65 6 -3.03963 -1.30627 -4.19188 0 0 0
66 6 -3.76623 -1.21082 -6.34421 0 0 0
ITEM: TIMESTEP
50
ITEM: NUMBER OF ATOMS
122
ITEM: BOX BOUNDS pp pp pp
0.0000000000000000e+00 2.0000000000000000e+01
0.0000000000000000e+00 2.0000000000000000e+01
0.0000000000000000e+00 2.0000000000000000e+01
ITEM: ATOMS id type xu yu zu vx vy vz
16 1 1.03831 0.617583 1.12587 0 0 0
17 1 2.33487 1.26387 1.58155 0 0 0
18 1 2.75702 0.563338 2.87295 0 0 0
19 1 4.04203 1.19664 3.37441 0 0 0
20 1 4.44778 0.473453 4.66229 0 0 0
21 1 5.7458 1.09121 5.17821 0 0 0
22 1 6.16282 0.368062 6.46133 0 0 0
42 6 0.283908 0.755258 1.9002 0 0 0
44 6 3.10162 1.13169 0.818412 0 0 0
45 6 2.1737 2.32496 1.76653 0 0 0
46 6 1.97342 0.679178 3.62231 0 0 0
48 6 4.82468 1.08297 2.62514 0 0 0
49 6 3.8761 2.25252 3.58074 0 0 0
50 6 3.65939 0.593421 5.40325 0 0 0
52 6 6.52453 0.97939 4.42542 0 0 0
53 6 5.5817 2.14652 5.38643 0 0 0
56 6 8.26302 0.853897 6.29858 0 0 0
113 5 5.96566 10.4189 5.70114 0 0 0
116 5 6.50596 12.3748 6.37365 0 0 0
43 6 1.21843 -0.441103 0.940468 0 0 0
47 6 2.91964 -0.495487 2.67439 0 0 0
51 6 4.59738 -0.58273 4.45145 0 0 0
55 6 6.32497 -0.686071 6.24599 0 0 0
63 6 -1.09002 -0.852838 0.879713 0 0 0
64 6 -3.09292 -1.83497 0.199984 0 0 0
54 6 5.36327 0.470724 7.19404 0 0 0
91 5 6.36216 6.2667 8.60342 0 0 0
23 1 7.45392 0.982173 7.01769 0 0 0
24 1 7.81069 0.270469 8.32949 0 0 0
25 1 8.95473 0.961837 9.07447 0 0 0
26 5 8.77074 0.585849 10.823 0 0 0
32 6 -8.05877 0.624639 -8.9104 0 0 0
57 6 7.2901 2.04275 7.20086 0 0 0
58 6 6.93708 0.28034 8.98141 0 0 0
60 6 9.92167 0.60387 8.71605 0 0 0
61 6 8.89405 2.04251 8.95382 0 0 0
62 7 9.57121 1.63822 11.1389 0 0 0
90 5 6.98427 6.31136 10.8487 0 0 0
35 6 -5.94264 0.677851 -9.84321 0 0 0
37 6 -5.25348 0.37433 -7.61139 0 0 0
72 3 6.30529 7.20523 9.17275 0 0 0
74 3 5.96314 8.41484 8.20407 0 0 0
92 5 5.35813 7.03464 9.70003 0 0 0
95 5 5.51269 9.21757 8.79693 0 0 0
96 5 5.10109 7.97343 7.69676 0 0 0
71 3 7.49034 7.0228 10.1852 0 0 0
73 3 8.18054 8.17702 11.1017 0 0 0
75 3 9.56295 8.018 11.9868 0 0 0
76 3 10.8781 11.8461 8.43379 0 0 0
77 3 12.4458 11.875 8.02261 0 0 0
78 3 9.60908 12.1717 7.46123 0 0 0
79 3 6.88537 8.98189 7.03582 0 0 0
80 3 10.0914 9.04418 13.1553 0 0 0
82 3 8.04768 12.1481 7.86537 0 0 0
83 4 6.59208 10.3613 6.52013 0 0 0
85 4 7.04587 11.6435 6.87721 0 0 0
89 5 8.17605 6.43483 9.56292 0 0 0
93 5 7.349 8.6035 11.6657 0 0 0
94 5 8.45654 8.91568 10.3761 0 0 0
97 5 9.62049 7.00957 12.4119 0 0 0
98 5 10.3279 8.09431 11.2065 0 0 0
99 5 10.775 12.5272 9.28138 0 0 0
100 5 10.7521 10.817 8.75901 0 0 0
101 5 12.7367 12.7899 7.48864 0 0 0
102 5 12.6771 11.0618 7.31843 0 0 0
103 5 9.66254 13.2321 7.19574 0 0 0
104 5 9.68596 11.6246 6.51801 0 0 0
105 5 6.67776 8.38833 6.14442 0 0 0
106 5 7.9577 8.85196 7.16681 0 0 0
107 5 10.2576 10.035 12.7206 0 0 0
109 5 14.0315 12.8989 9.02381 0 0 0
111 5 7.70211 11.8642 8.86562 0 0 0
112 5 7.80079 13.2107 7.84726 0 0 0
114 5 13.157 11.4289 11.1195 0 0 0
117 5 12.3195 8.53389 13.5941 0 0 0
81 3 13.7082 11.8483 8.98409 0 0 0
84 3 13.8897 11.0947 10.396 0 0 0
87 3 15.1472 11.2003 11.331 0 0 0
110 5 14.394 11.3715 8.27864 0 0 0
115 5 13.7719 10.0151 10.2737 0 0 0
119 5 15.0506 12.0351 12.0313 0 0 0
120 5 16.1643 11.1921 10.9116 0 0 0
121 5 15.1044 10.305 11.9491 0 0 0
1 1 -7.62233 -0.374036 -8.94268 0 0 0
31 1 -7.53118 -0.949294 -7.52747 0 0 0
33 6 -8.20746 -1.02499 -9.59439 0 0 0
59 6 8.08905 -0.762361 8.11971 0 0 0
67 6 -7.69046 -0.127218 -6.82857 0 0 0
68 6 -8.29463 -1.71677 -7.39214 0 0 0
2 1 -6.18024 -0.298202 -9.42225 0 0 0
3 1 -5.3739 -0.564259 -8.15465 0 0 0
4 2 -6.17466 -1.51682 -7.36383 0 0 0
34 6 -5.98876 -1.09043 -10.1486 0 0 0
36 6 -4.40545 -0.970809 -8.4462 0 0 0
15 5 0.508963 1.4243 -0.387268 0 0 0
12 3 -2.83055 0.419656 -2.22466 0 0 0
13 3 -1.65924 1.02906 -1.80609 0 0 0
14 3 -0.976684 0.576739 -0.695152 0 0 0
40 6 -3.31574 0.804825 -3.03167 0 0 0
41 6 -1.29224 1.82648 -2.33019 0 0 0
69 1 13.2029 10.0944 15.0454 0 0 0
70 2 11.1957 10.933 15.3945 0 0 0
86 3 11.3887 8.85252 14.0805 0 0 0
88 4 11.8779 10.0478 14.8244 0 0 0
108 5 9.34565 9.10847 13.9546 0 0 0
118 5 11.1982 8.16222 14.9082 0 0 0
122 6 13.5793 10.8054 15.612 0 0 0
6 3 -6.65014 -1.76429 -4.94328 0 0 0
38 6 -7.6415 -1.93384 -5.10079 0 0 0
39 6 -6.92076 -1.83637 -2.88327 0 0 0
5 3 -5.76006 -1.57884 -6.00827 0 0 0
7 3 -6.22575 -1.72003 -3.61962 0 0 0
8 3 -4.8944 -1.47776 -3.3014 0 0 0
9 3 -4.5023 -1.34451 -1.9618 0 0 0
10 4 -5.22489 -1.8569 -1.08085 0 0 0
11 3 -3.34919 -0.674426 -1.53421 0 0 0
27 3 -1.52666 -0.477748 0.0453025 0 0 0
28 3 -2.71737 -1.07222 -0.361145 0 0 0
29 3 -3.98623 -1.44772 -4.35681 0 0 0
30 3 -4.40402 -1.51468 -5.6747 0 0 0
65 6 -2.98368 -1.39986 -4.18066 0 0 0
66 6 -3.67796 -1.51829 -6.38675 0 0 0
ITEM: TIMESTEP
75
ITEM: NUMBER OF ATOMS
122
ITEM: BOX BOUNDS pp pp pp
0.0000000000000000e+00 2.0000000000000000e+01
0.0000000000000000e+00 2.0000000000000000e+01
0.0000000000000000e+00 2.0000000000000000e+01
ITEM: ATOMS id type xu yu zu vx vy vz
16 1 0.988534 0.635772 1.16028 0 0 0
17 1 2.31805 1.26578 1.58995 0 0 0
18 1 2.81367 0.599512 2.87976 0 0 0
19 1 4.12425 1.23335 3.37093 0 0 0
20 1 4.5603 0.519376 4.65503 0 0 0
21 1 5.86878 1.09748 5.21273 0 0 0
22 1 6.24038 0.344253 6.49694 0 0 0
42 6 0.274009 0.72646 1.97833 0 0 0
44 6 3.05237 1.12498 0.796871 0 0 0
45 6 2.16699 2.33132 1.76067 0 0 0
46 6 2.05542 0.713256 3.65359 0 0 0
48 6 4.89389 1.12353 2.60699 0 0 0
49 6 3.96268 2.29143 3.57604 0 0 0
50 6 3.77822 0.635163 5.40491 0 0 0
52 6 6.66619 0.981278 4.47882 0 0 0
53 6 5.72795 2.15487 5.43359 0 0 0
56 6 8.34074 0.847638 6.48525 0 0 0
113 5 6.31565 10.3085 5.51027 0 0 0
116 5 6.40692 12.2749 6.43753 0 0 0
43 6 1.15393 -0.413535 0.913776 0 0 0
47 6 2.97711 -0.460601 2.691 0 0 0
51 6 4.70419 -0.539888 4.44732 0 0 0
55 6 6.44513 -0.700502 6.26298 0 0 0
63 6 -1.25541 -0.72797 0.941314 0 0 0
64 6 -3.17936 -1.81893 0.180925 0 0 0
54 6 5.40478 0.398887 7.19483 0 0 0
91 5 6.41215 6.2984 8.6282 0 0 0
23 1 7.48168 0.975768 7.14337 0 0 0
24 1 7.77144 0.315865 8.49882 0 0 0
25 1 8.84727 1.08471 9.27593 0 0 0
26 5 8.51884 0.879188 11.032 0 0 0
32 6 -8.00712 0.606286 -9.02699 0 0 0
57 6 7.2907 2.03806 7.29008 0 0 0
58 6 6.86413 0.310308 9.10088 0 0 0
60 6 9.83504 0.691276 9.03747 0 0 0
61 6 8.81209 2.14726 9.03785 0 0 0
62 7 9.53528 1.71706 11.362 0 0 0
90 5 6.89876 6.42595 10.9361 0 0 0
35 6 -5.88501 0.588173 -9.95491 0 0 0
37 6 -5.17149 0.302153 -7.72819 0 0 0
72 3 6.38097 7.25468 9.16046 0 0 0
74 3 6.14169 8.42051 8.12578 0 0 0
92 5 5.40555 7.17436 9.65386 0 0 0
95 5 5.66637 9.23758 8.66306 0 0 0
96 5 5.30185 7.97481 7.5905 0 0 0
71 3 7.49426 7.04842 10.2566 0 0 0
73 3 8.24368 8.192 11.1317 0 0 0
75 3 9.56086 7.97848 12.0934 0 0 0
76 3 10.8003 11.9158 8.43588 0 0 0
77 3 12.3567 11.8837 7.99593 0 0 0
78 3 9.5305 12.3345 7.51612 0 0 0
79 3 7.10431 8.93454 6.97083 0 0 0
80 3 10.0846 8.96431 13.2956 0 0 0
82 3 7.98079 12.1684 7.90066 0 0 0
83 4 6.79931 10.2911 6.42178 0 0 0
85 4 7.04656 11.5966 6.88427 0 0 0
89 5 8.15854 6.37423 9.69695 0 0 0
93 5 7.43388 8.74712 11.6138 0 0 0
94 5 8.63103 8.84407 10.3763 0 0 0
97 5 9.57648 6.96539 12.5119 0 0 0
98 5 10.3567 8.04688 11.3427 0 0 0
99 5 10.7246 12.5703 9.30863 0 0 0
100 5 10.6654 10.8773 8.71642 0 0 0
101 5 12.6631 12.7594 7.41106 0 0 0
102 5 12.5232 11.0224 7.33337 0 0 0
103 5 9.54946 13.4278 7.4526 0 0 0
104 5 9.61693 11.973 6.48464 0 0 0
105 5 6.90366 8.31628 6.09235 0 0 0
106 5 8.17203 8.81756 7.13281 0 0 0
107 5 10.3181 9.94975 12.8796 0 0 0
109 5 13.9565 12.9076 8.99691 0 0 0
111 5 7.64746 11.8886 8.90535 0 0 0
112 5 7.65508 13.2089 7.8659 0 0 0
114 5 13.1294 11.4555 11.1023 0 0 0
117 5 12.2474 8.26537 13.8656 0 0 0
81 3 13.6254 11.859 8.94681 0 0 0
84 3 13.8248 11.0891 10.3514 0 0 0
87 3 15.136 11.1214 11.2191 0 0 0
110 5 14.2969 11.3996 8.21443 0 0 0
115 5 13.6443 10.0162 10.2446 0 0 0
119 5 15.2098 12.0118 11.8549 0 0 0
120 5 16.1095 10.9279 10.7529 0 0 0
121 5 15.0153 10.2922 11.9108 0 0 0
1 1 -7.58881 -0.400145 -9.03256 0 0 0
31 1 -7.50711 -0.942286 -7.60486 0 0 0
33 6 -8.18592 -1.06149 -9.66121 0 0 0
59 6 8.1047 -0.711312 8.34704 0 0 0
67 6 -7.63695 -0.102487 -6.9213 0 0 0
68 6 -8.29498 -1.68153 -7.45651 0 0 0
2 1 -6.14546 -0.374965 -9.51585 0 0 0
3 1 -5.33757 -0.642248 -8.24959 0 0 0
4 2 -6.17037 -1.54689 -7.43651 0 0 0
34 6 -5.98175 -1.18256 -10.2293 0 0 0
36 6 -4.38958 -1.09649 -8.53926 0 0 0
15 5 0.363179 1.51537 -0.283025 0 0 0
12 3 -2.85984 0.366698 -2.29503 0 0 0
13 3 -1.7095 1.00676 -1.85591 0 0 0
14 3 -1.0798 0.619829 -0.682032 0 0 0
40 6 -3.31309 0.724375 -3.1348 0 0 0
41 6 -1.32847 1.77673 -2.40466 0 0 0
69 1 13.0966 10.3498 14.574 0 0 0
70 2 11.2628 10.5575 15.8188 0 0 0
86 3 11.3257 8.7036 14.2769 0 0 0
88 4 11.8525 9.93556 14.9015 0 0 0
108 5 9.30533 9.0843 14.0514 0 0 0
118 5 11.0284 8.10112 15.1454 0 0 0
122 6 13.4907 11.1379 15.0037 0 0 0
6 3 -6.66845 -1.77793 -5.0277 0 0 0
38 6 -7.66016 -1.942 -5.19661 0 0 0
39 6 -6.96893 -1.8257 -2.96965 0 0 0
5 3 -5.7627 -1.59902 -6.07726 0 0 0
7 3 -6.26313 -1.73248 -3.69824 0 0 0
8 3 -4.92776 -1.51997 -3.36813 0 0 0
9 3 -4.53765 -1.40089 -2.03042 0 0 0
10 4 -5.25754 -1.94864 -1.16447 0 0 0
11 3 -3.39943 -0.70967 -1.591 0 0 0
27 3 -1.65231 -0.412046 0.0617831 0 0 0
28 3 -2.80096 -1.05911 -0.384509 0 0 0
29 3 -4.00692 -1.50012 -4.41102 0 0 0
30 3 -4.41156 -1.53777 -5.73547 0 0 0
65 6 -3.00659 -1.47805 -4.22072 0 0 0
66 6 -3.67499 -1.52503 -6.43674 0 0 0
ITEM: TIMESTEP
100
ITEM: NUMBER OF ATOMS
122
ITEM: BOX BOUNDS pp pp pp
0.0000000000000000e+00 2.0000000000000000e+01
0.0000000000000000e+00 2.0000000000000000e+01
0.0000000000000000e+00 2.0000000000000000e+01
ITEM: ATOMS id type xu yu zu vx vy vz
16 1 0.976611 0.656133 1.25346 0 0 0
17 1 2.31498 1.2796 1.66937 0 0 0
18 1 2.83884 0.562395 2.92085 0 0 0
19 1 4.17537 1.15221 3.39122 0 0 0
20 1 4.63097 0.440832 4.67331 0 0 0
21 1 5.92007 1.06814 5.21847 0 0 0
22 1 6.3102 0.37445 6.53385 0 0 0
42 6 0.303102 0.667031 2.10899 0 0 0
44 6 3.03229 1.17726 0.854302 0 0 0
45 6 2.16557 2.3374 1.88822 0 0 0
46 6 2.105 0.670153 3.71945 0 0 0
48 6 4.92854 1.01945 2.61409 0 0 0
49 6 4.0466 2.21482 3.59585 0 0 0
50 6 3.84445 0.531099 5.42307 0 0 0
52 6 6.72347 0.947128 4.49182 0 0 0
53 6 5.752 2.12951 5.39918 0 0 0
56 6 8.37655 0.984452 6.66173 0 0 0
113 5 6.40987 10.2523 5.52355 0 0 0
116 5 6.39425 12.2375 6.40057 0 0 0
43 6 1.14367 -0.366361 0.915011 0 0 0
47 6 2.97126 -0.49533 2.69463 0 0 0
51 6 4.80339 -0.614876 4.46112 0 0 0
55 6 6.61322 -0.649639 6.31712 0 0 0
63 6 -1.43264 -0.569774 1.1103 0 0 0
64 6 -3.27907 -1.71691 0.231019 0 0 0
54 6 5.44482 0.358229 7.19521 0 0 0
91 5 6.47672 6.25451 8.60914 0 0 0
23 1 7.46004 1.10071 7.24064 0 0 0
24 1 7.65792 0.511302 8.64618 0 0 0
25 1 8.82215 1.19832 9.36492 0 0 0
26 5 8.79862 0.722857 11.1006 0 0 0
32 6 -8.10444 0.526399 -9.20945 0 0 0
57 6 7.22195 2.16008 7.33433 0 0 0
58 6 6.75267 0.669427 9.23235 0 0 0
60 6 9.76966 0.901268 8.91384 0 0 0
61 6 8.71017 2.28012 9.301 0 0 0
62 7 9.70644 1.68609 11.4165 0 0 0
90 5 7.09081 6.23607 10.8494 0 0 0
35 6 -5.9681 0.538314 -10.0339 0 0 0
37 6 -5.13585 0.172366 -7.91138 0 0 0
72 3 6.46012 7.1993 9.16375 0 0 0
74 3 6.23194 8.39289 8.15527 0 0 0
92 5 5.47878 7.1063 9.64729 0 0 0
95 5 5.75672 9.20597 8.70568 0 0 0
96 5 5.39932 7.95785 7.59975 0 0 0
71 3 7.61142 6.97459 10.2253 0 0 0
73 3 8.25627 8.10689 11.1951 0 0 0
75 3 9.59889 7.95661 12.1256 0 0 0
76 3 10.7801 11.9942 8.42531 0 0 0
77 3 12.3297 11.9594 7.96299 0 0 0
78 3 9.51122 12.4494 7.51539 0 0 0
79 3 7.22462 8.94488 7.03585 0 0 0
80 3 9.99772 8.88194 13.4195 0 0 0
82 3 7.96137 12.2497 7.87159 0 0 0
83 4 6.87594 10.2734 6.44466 0 0 0
85 4 7.05967 11.5994 6.87287 0 0 0
89 5 8.33094 6.40811 9.61393 0 0 0
93 5 7.40418 8.52802 11.7382 0 0 0
94 5 8.57317 8.87285 10.5104 0 0 0
97 5 9.73558 6.91893 12.4551 0 0 0
98 5 10.3696 8.18068 11.3778 0 0 0
99 5 10.7205 12.638 9.30437 0 0 0
100 5 10.6172 10.9623 8.71373 0 0 0
101 5 12.6424 12.8744 7.44488 0 0 0
102 5 12.4867 11.1478 7.23889 0 0 0
103 5 9.52136 13.5454 7.5088 0 0 0
104 5 9.60278 12.152 6.46405 0 0 0
105 5 7.12603 8.30067 6.16068 0 0 0
106 5 8.28324 8.90848 7.25925 0 0 0
107 5 10.006 9.94678 13.1564 0 0 0
109 5 13.9805 12.871 8.9792 0 0 0
111 5 7.6107 12.0241 8.88833 0 0 0
112 5 7.61484 13.2798 7.76522 0 0 0
114 5 13.1665 11.4006 11.0269 0 0 0
117 5 12.2657 8.41773 13.8798 0 0 0
81 3 13.6149 11.8385 8.87792 0 0 0
84 3 13.8121 11.0062 10.2457 0 0 0
87 3 15.1532 10.9076 11.0613 0 0 0
110 5 14.2485 11.393 8.10573 0 0 0
115 5 13.5544 9.95255 10.1127 0 0 0
119 5 15.2938 11.7478 11.751 0 0 0
120 5 16.1046 10.7024 10.5508 0 0 0
121 5 15.0047 10.0389 11.7042 0 0 0
1 1 -7.66714 -0.468113 -9.14144 0 0 0
31 1 -7.57344 -0.915135 -7.67953 0 0 0
33 6 -8.24844 -1.18121 -9.72675 0 0 0
59 6 7.85762 -0.558046 8.57612 0 0 0
67 6 -7.64197 -0.033361 -7.04248 0 0 0
68 6 -8.39437 -1.5997 -7.46605 0 0 0
2 1 -6.2303 -0.443267 -9.63851 0 0 0
3 1 -5.4052 -0.766551 -8.39673 0 0 0
4 2 -6.26337 -1.57415 -7.50968 0 0 0
34 6 -6.08523 -1.21226 -10.3965 0 0 0
36 6 -4.51352 -1.31181 -8.70582 0 0 0
15 5 0.261351 1.63754 -0.0766425 0 0 0
12 3 -2.7228 0.316439 -2.32834 0 0 0
13 3 -1.62226 0.981083 -1.81609 0 0 0
14 3 -1.10708 0.675516 -0.564766 0 0 0
40 6 -3.08575 0.633289 -3.22345 0 0 0
41 6 -1.18695 1.72481 -2.36261 0 0 0
69 1 12.784 10.6765 14.5331 0 0 0
70 2 11.1782 10.3764 16.061 0 0 0
86 3 11.3095 8.73523 14.3265 0 0 0
88 4 11.7085 9.99164 14.9901 0 0 0
108 5 9.26144 8.73529 14.2183 0 0 0
118 5 11.1029 8.06946 15.1739 0 0 0
122 6 13.0876 11.4853 14.9963 0 0 0
6 3 -6.67226 -1.80158 -5.08311 0 0 0
38 6 -7.66354 -1.97741 -5.23157 0 0 0
39 6 -6.90995 -1.89742 -3.02131 0 0 0
5 3 -5.80411 -1.6014 -6.16102 0 0 0
7 3 -6.22131 -1.7651 -3.76184 0 0 0
8 3 -4.88657 -1.51753 -3.45321 0 0 0
9 3 -4.47431 -1.40551 -2.11015 0 0 0
10 4 -5.20142 -1.95566 -1.2578 0 0 0
11 3 -3.34613 -0.71702 -1.62231 0 0 0
27 3 -1.7461 -0.318929 0.175673 0 0 0
28 3 -2.84827 -0.995094 -0.34767 0 0 0
29 3 -4.00407 -1.4581 -4.52934 0 0 0
30 3 -4.44802 -1.50377 -5.84324 0 0 0
65 6 -2.99993 -1.40943 -4.37295 0 0 0
66 6 -3.72748 -1.47346 -6.56104 0 0 0
ITEM: TIMESTEP
125
ITEM: NUMBER OF ATOMS
122
ITEM: BOX BOUNDS pp pp pp
0.0000000000000000e+00 2.0000000000000000e+01
0.0000000000000000e+00 2.0000000000000000e+01
0.0000000000000000e+00 2.0000000000000000e+01
ITEM: ATOMS id type xu yu zu vx vy vz
16 1 0.918969 0.604474 1.32654 0 0 0
17 1 2.25779 1.21789 1.75442 0 0 0
18 1 2.83764 0.472264 2.9624 0 0 0
19 1 4.1813 1.07741 3.39639 0 0 0
20 1 4.66633 0.38609 4.67735 0 0 0
21 1 5.91586 1.0728 5.24476 0 0 0
22 1 6.29115 0.424201 6.58413 0 0 0
42 6 0.26605 0.535312 2.19644 0 0 0
44 6 2.95489 1.16739 0.917909 0 0 0
45 6 2.09069 2.26163 2.01999 0 0 0
46 6 2.13049 0.546952 3.7885 0 0 0
48 6 4.92036 0.941063 2.60594 0 0 0
49 6 4.04991 2.14263 3.58782 0 0 0
50 6 3.87214 0.430626 5.4225 0 0 0
52 6 6.74398 0.967705 4.54279 0 0 0
53 6 5.70403 2.13081 5.40014 0 0 0
56 6 8.35062 1.04949 6.72876 0 0 0
113 5 6.36046 10.2659 5.53711 0 0 0
116 5 6.36832 12.2542 6.40649 0 0 0
43 6 1.08641 -0.384821 0.899419 0 0 0
47 6 2.98048 -0.57716 2.70534 0 0 0
51 6 4.89555 -0.658002 4.46103 0 0 0
55 6 6.60974 -0.603441 6.40683 0 0 0
63 6 -1.57891 -0.44923 1.16734 0 0 0
64 6 -3.3403 -1.62559 0.188135 0 0 0
54 6 5.41682 0.41783 7.23491 0 0 0
91 5 6.69995 6.22513 8.55057 0 0 0
23 1 7.42237 1.19037 7.2834 0 0 0
24 1 7.58571 0.665447 8.71542 0 0 0
25 1 8.73215 1.37542 9.44163 0 0 0
26 5 8.78194 0.78594 11.1407 0 0 0
32 6 -8.13482 0.440823 -9.27049 0 0 0
57 6 7.17962 2.25251 7.32023 0 0 0
58 6 6.6656 0.84387 9.27257 0 0 0
60 6 9.67987 1.15328 8.95068 0 0 0
61 6 8.56176 2.45186 9.44262 0 0 0
62 7 9.8104 1.61934 11.4491 0 0 0
90 5 7.25464 6.21853 10.7973 0 0 0
35 6 -6.02587 0.373457 -10.1658 0 0 0
37 6 -5.08732 0.0684252 -8.0875 0 0 0
72 3 6.59268 7.1579 9.11568 0 0 0
74 3 6.28495 8.34536 8.1213 0 0 0
92 5 5.61626 6.97775 9.58386 0 0 0
95 5 5.7582 9.12156 8.67691 0 0 0
96 5 5.48403 7.86467 7.55515 0 0 0
71 3 7.73979 6.99312 10.1909 0 0 0
73 3 8.29528 8.11952 11.2178 0 0 0
75 3 9.68121 8.0287 12.1023 0 0 0
76 3 10.7526 11.9817 8.42032 0 0 0
77 3 12.3061 11.9771 7.95621 0 0 0
78 3 9.47734 12.4706 7.53971 0 0 0
79 3 7.25277 8.96734 7.01636 0 0 0
80 3 10.0227 8.86651 13.4654 0 0 0
82 3 7.92873 12.2496 7.88888 0 0 0
83 4 6.85536 10.29 6.44295 0 0 0
85 4 7.03556 11.6149 6.87458 0 0 0
89 5 8.48977 6.47349 9.57642 0 0 0
93 5 7.41703 8.36799 11.8243 0 0 0
94 5 8.47723 8.98547 10.5994 0 0 0
97 5 9.92182 6.98836 12.3606 0 0 0
98 5 10.4053 8.37116 11.3525 0 0 0
99 5 10.6899 12.5977 9.32103 0 0 0
100 5 10.5936 10.9413 8.66809 0 0 0
101 5 12.6142 12.9342 7.51747 0 0 0
102 5 12.4688 11.2251 7.16896 0 0 0
103 5 9.48356 13.5635 7.58952 0 0 0
104 5 9.57188 12.2236 6.47538 0 0 0
105 5 7.19432 8.34132 6.12678 0 0 0
106 5 8.30491 8.96439 7.25959 0 0 0
107 5 9.87008 9.94266 13.3186 0 0 0
109 5 13.9593 12.8096 9.02536 0 0 0
111 5 7.58082 11.9985 8.90089 0 0 0
112 5 7.5711 13.2778 7.81136 0 0 0
114 5 13.0724 11.1751 10.9732 0 0 0
117 5 12.3429 8.65578 13.8061 0 0 0
81 3 13.5879 11.7863 8.86955 0 0 0
84 3 13.7526 10.8654 10.1842 0 0 0
87 3 15.0575 10.7325 11.0444 0 0 0
110 5 14.2409 11.3826 8.08904 0 0 0
115 5 13.5383 9.81981 9.95239 0 0 0
119 5 15.2772 11.5954 11.683 0 0 0
120 5 15.9752 10.3847 10.5572 0 0 0
121 5 14.8205 9.93744 11.7437 0 0 0
1 1 -7.70155 -0.550258 -9.15146 0 0 0
31 1 -7.53219 -0.888048 -7.67015 0 0 0
33 6 -8.32047 -1.30219 -9.64091 0 0 0
59 6 7.78915 -0.405167 8.69296 0 0 0
67 6 -7.49436 0.0379294 -7.09546 0 0 0
68 6 -8.37849 -1.4977 -7.35487 0 0 0
2 1 -6.29136 -0.586241 -9.72144 0 0 0
3 1 -5.41072 -0.883732 -8.5107 0 0 0
4 2 -6.25628 -1.61518 -7.54914 0 0 0
34 6 -6.20853 -1.38603 -10.4568 0 0 0
36 6 -4.55267 -1.47636 -8.82761 0 0 0
15 5 0.188497 1.70461 0.098528 0 0 0
12 3 -2.61716 0.349725 -2.37793 0 0 0
13 3 -1.54337 1.02208 -1.80643 0 0 0
14 3 -1.12867 0.745303 -0.512593 0 0 0
40 6 -2.91416 0.648058 -3.30231 0 0 0
41 6 -1.06549 1.74666 -2.34238 0 0 0
69 1 12.6331 10.8936 14.6374 0 0 0
70 2 11.0784 10.3338 16.1417 0 0 0
86 3 11.3829 8.81914 14.3096 0 0 0
88 4 11.6464 10.0672 15.0554 0 0 0
108 5 9.35308 8.53051 14.2653 0 0 0
118 5 11.3123 8.06347 15.1001 0 0 0
122 6 12.8494 11.7028 15.1493 0 0 0
6 3 -6.60367 -1.81897 -5.13295 0 0 0
38 6 -7.59128 -2.02668 -5.26512 0 0 0
39 6 -6.83188 -1.87049 -3.07766 0 0 0
5 3 -5.75307 -1.60746 -6.22094 0 0 0
7 3 -6.14748 -1.74508 -3.8224 0 0 0
8 3 -4.8123 -1.47178 -3.53147 0 0 0
9 3 -4.41115 -1.34711 -2.19155 0 0 0
10 4 -5.15474 -1.89252 -1.3466 0 0 0
11 3 -3.29554 -0.655024 -1.68437 0 0 0
27 3 -1.81878 -0.226848 0.204765 0 0 0
28 3 -2.87907 -0.915752 -0.37719 0 0 0
29 3 -3.94046 -1.4005 -4.61436 0 0 0
30 3 -4.39558 -1.45865 -5.92389 0 0 0
65 6 -2.93562 -1.33545 -4.46606 0 0 0
66 6 -3.68622 -1.40211 -6.65157 0 0 0
ITEM: TIMESTEP
150
ITEM: NUMBER OF ATOMS
122
ITEM: BOX BOUNDS pp pp pp
0.0000000000000000e+00 2.0000000000000000e+01
0.0000000000000000e+00 2.0000000000000000e+01
0.0000000000000000e+00 2.0000000000000000e+01
ITEM: ATOMS id type xu yu zu vx vy vz
16 1 0.914793 0.5851 1.33681 0 0 0
17 1 2.25366 1.16508 1.79991 0 0 0
18 1 2.83276 0.354609 2.96718 0 0 0
19 1 4.14005 1.00268 3.44143 0 0 0
20 1 4.64607 0.324418 4.72014 0 0 0
21 1 5.84302 1.09227 5.29533 0 0 0
22 1 6.20112 0.507633 6.6663 0 0 0
42 6 0.277077 0.437224 2.20689 0 0 0
44 6 2.95408 1.15912 0.9646 0 0 0
45 6 2.08911 2.19279 2.12312 0 0 0
46 6 2.11561 0.35024 3.78821 0 0 0
48 6 4.89653 0.915231 2.66146 0 0 0
49 6 3.95658 2.05609 3.64918 0 0 0
50 6 3.84305 0.309676 5.45677 0 0 0
52 6 6.69524 1.00285 4.62111 0 0 0
53 6 5.58225 2.14443 5.41199 0 0 0
56 6 8.26978 1.12292 6.74692 0 0 0
113 5 6.32086 10.2667 5.55113 0 0 0
116 5 6.2938 12.212 6.51259 0 0 0
43 6 1.08125 -0.361177 0.822344 0 0 0
47 6 3.02335 -0.670123 2.64721 0 0 0
51 6 4.94478 -0.699606 4.49511 0 0 0
55 6 6.48773 -0.537195 6.54767 0 0 0
63 6 -1.65425 -0.346283 1.22191 0 0 0
64 6 -3.36797 -1.53838 0.190446 0 0 0
54 6 5.32569 0.568631 7.31245 0 0 0
91 5 6.85819 6.1625 8.47831 0 0 0
23 1 7.35447 1.2809 7.31863 0 0 0
24 1 7.54553 0.775555 8.75458 0 0 0
25 1 8.62373 1.57284 9.49437 0 0 0
26 5 8.65375 1.02183 11.2075 0 0 0
32 6 -8.00882 0.416307 -9.38847 0 0 0
57 6 7.11638 2.34434 7.33851 0 0 0
58 6 6.61028 0.881107 9.30429 0 0 0
60 6 9.59828 1.39776 9.03846 0 0 0
61 6 8.38922 2.63723 9.46493 0 0 0
62 7 9.64331 1.89643 11.5264 0 0 0
90 5 7.49539 6.13327 10.6908 0 0 0
35 6 -5.9721 0.0212501 -10.4092 0 0 0
37 6 -4.99356 -0.0954662 -8.32451 0 0 0
72 3 6.71674 7.07851 9.06311 0 0 0
74 3 6.33573 8.27525 8.10203 0 0 0
92 5 5.76265 6.8295 9.54599 0 0 0
95 5 5.8093 9.03661 8.68084 0 0 0
96 5 5.52074 7.79096 7.56206 0 0 0
71 3 7.90126 6.96714 10.1058 0 0 0
73 3 8.39155 8.11853 11.1369 0 0 0
75 3 9.75055 8.09476 12.0577 0 0 0
76 3 10.7075 11.9548 8.47642 0 0 0
77 3 12.2577 11.9638 8.00879 0 0 0
78 3 9.42359 12.4599 7.6198 0 0 0
79 3 7.24284 8.92722 6.96405 0 0 0
80 3 10.0236 8.94534 13.429 0 0 0
82 3 7.87988 12.1989 7.96133 0 0 0