LAMMPS (8 Feb 2023)
OMP_NUM_THREADS environment is not set. Defaulting to 1 thread. (src/comm.cpp:98)
  using 1 OpenMP thread(s) per MPI task
# define variables

variable       spacing index 10.0
variable       lbox index 20.0
variable       sname string simplified_mc
variable       rtemp index 300


#package omp 4

units           real
atom_style      full
boundary        p p p
#pair_style      lj/cut/coul/long  14
pair_style      lj/charmm/coul/long/opt 9 10.00000
#pair_modify     mix arithmetic tail yes
#special_bonds   lj/coul 0.0 0.0 1.0
#kspace_style    ewald 0.0001
bond_style      harmonic
angle_style     harmonic
dihedral_style  harmonic
improper_style  umbrella
kspace_style    pppm 0.0001

# initialize a simple cumbic box for the initial structure

lattice        sc ${spacing}
lattice        sc 10.0
Lattice spacing in x,y,z = 10 10 10
region         mybox block 0 ${lbox} 0 ${lbox} 0 ${lbox} units box
region         mybox block 0 20.0 0 ${lbox} 0 ${lbox} units box
region         mybox block 0 20.0 0 20.0 0 ${lbox} units box
region         mybox block 0 20.0 0 20.0 0 20.0 units box
create_box     8 mybox                bond/types 13                angle/types 5                dihedral/types 11                improper/types 1                extra/bond/per/atom 13                extra/angle/per/atom 10                extra/dihedral/per/atom 20                extra/improper/per/atom 20                extra/special/per/atom 100
Created orthogonal box = (0 0 0) to (20 20 20)
  1 by 1 by 1 MPI processor grid

molecule       69 xlig.lammps.txt
Read molecule template 69:
  1 molecules
  0 fragments
  68 atoms with max type 7
  70 bonds with max type 10
  128 angles with max type 4
  188 dihedrals with max type 11
  39 impropers with max type 1
molecule       420 oleic.lammps.txt
Read molecule template 420:
  1 molecules
  0 fragments
  54 atoms with max type 6
  53 bonds with max type 13
  100 angles with max type 5
  141 dihedrals with max type 9
  9 impropers with max type 1


pair_modify          mix geometric
#neighbor             2.0 multi
#neigh_modify         every 2 delay 4 check yes
thermo_style         multi
thermo_modify        line multi format float %14.6f flush yes



# originally used box instead of single, which takes no args and auto populates the box until full
create_atoms   0 single 0  0  0   mol 69 42 units box
Created 68 atoms
  using box units in orthogonal box = (0 0 0) to (20 20 20)
  create_atoms CPU = 0.001 seconds
create_atoms   0 single 10 10 10  mol 420 42 units box
Created 54 atoms
  using box units in orthogonal box = (0 0 0) to (20 20 20)
  create_atoms CPU = 0.000 seconds


group xligand molecule == 69
0 atoms in group xligand
#group xligand id 1:68
#group xligand include molecule

group oleic_acid molecule == 420
0 atoms in group oleic_acid
#group oleic_acid id 69:122
#group oleic_acid include molecule



# coeffs
# Masses

mass    1 1.2011E+01 # C_3
mass    2 1.4007E+01 # N_3
mass    3 1.2011E+01 # C_R
mass    4 1.5999E+01 # O_2
mass    5 3.2060E+01 # S_3
mass    6 1.0080E+00 # H_
mass    7 1.0080E+00 # H___A
mass    8 1.5999E+01 # O_R


pair_coeff           1 1 0.09510000 3.47299041 # C_3 C_3
pair_coeff           2 2 0.07740000 3.26256026 # N_3 N_3
pair_coeff           3 3 0.09510000 3.47299041 # C_R C_R
pair_coeff           4 4 0.09570000 3.03315369 # O_2 O_2
pair_coeff           5 5 0.34400001 3.59032202 # S_3 S_3
pair_coeff           6 6 0.01520000 2.84642134 # H_ H_
pair_coeff           7 7 0.01520000 2.84642134 # H___A H___A
pair_coeff           8 8 0.09570000 3.03315369 # O_R O_R


pair_modify          mix geometric
neighbor             2.0 multi
neigh_modify         every 2 delay 4 check yes
thermo_style         multi
WARNING: New thermo_style command, previous thermo_modify settings will be lost (src/output.cpp:896)
thermo_modify        line multi format float %14.6f flush yes

bond_coeff           1 350 1.53000 # C_3 C_3
bond_coeff           2 350 1.09000 # C_3 H_
bond_coeff           3 350 1.46200 # N_3 C_3
bond_coeff           4 350 1.39200 # N_3 C_R
bond_coeff           5 525 1.39000 # C_R C_R
bond_coeff           6 350 1.02000 # C_R H_
bond_coeff           7 700 1.25000 # O_2 C_R
bond_coeff           8 350 1.73000 # S_3 C_R
bond_coeff           9 350 1.80000 # S_3 C_3
bond_coeff           10 350 1.36000 # S_3 H___A
bond_coeff           11 525 1.35000 # O_R C_R
bond_coeff           12 350 0.98000 # O_R H___A
bond_coeff           13 350 1.46000 # C_R C_3


angle_coeff          1 50 109.47100 # X C_3 X
angle_coeff          2 50 106.70000 # X N_3 X
angle_coeff          3 50 120 # X C_R X
angle_coeff          4 50 92.10000 # X S_3 X
angle_coeff          5 50 120 # X O_R X


dihedral_coeff       1 0.08333 -1 6 # C_R C_R C_3 X
dihedral_coeff       2 0.08333 -1 6 # O_2 C_R C_3 X
dihedral_coeff       3 0.08333 -1 6 # O_R C_R C_3 X
dihedral_coeff       4 0.11111 1 3 # X C_3 C_3 X
dihedral_coeff       5 0.16667 1 3 # X C_R C_3 X
dihedral_coeff       6 3.12500 -1 2 # X C_R C_R X
dihedral_coeff       7 0.16667 1 3 # X N_3 C_3 X
dihedral_coeff       8 0.12500 -1 6 # X N_3 C_R C_R
dihedral_coeff       9 6.25000 -1 2 # X O_R C_R X
dihedral_coeff       10 0.33333 1 3 # X S_3 C_3 X
dihedral_coeff       11 0.50000 -1 2 # X S_3 C_R X

improper_coeff       1 13.33333 0 # C_R X X X

timestep             0.5

print                .
.
print                ==========================================
==========================================
print                "500 steps CG Minimization"
500 steps CG Minimization
print                ==========================================
==========================================
print                .
.

dump                 1 all custom 25 ${sname}.min.lammpstrj id type xu yu zu vx vy vz
dump                 1 all custom 25 simplified_mc.min.lammpstrj id type xu yu zu vx vy vz
thermo               10
min_style            cg
minimize             1.0e-4 1.0e-4 500 5000

CITE-CITE-CITE-CITE-CITE-CITE-CITE-CITE-CITE-CITE-CITE-CITE-CITE

Your simulation uses code contributions which should be cited:

- neighbor multi command: doi:10.1016/j.cpc.2008.03.005, doi:10.1007/s40571-020-00361-2

@Article{Intveld08,
 author =  {in 't Veld, P. J. and S. J.~Plimpton and G. S. Grest},
 title =   {Accurate and Efficient Methods for Modeling Colloidal
            Mixtures in an Explicit Solvent using Molecular Dynamics},
 journal = {Comput.\ Phys.\ Commut.},
 year =    2008,
 volume =  179,
 pages =   {320--329}
}

@article{Shire2020,
 author = {Shire, Tom and Hanley, Kevin J. and Stratford, Kevin},
 title = {{DEM} Simulations of Polydisperse Media: Efficient Contact
          Detection Applied to Investigate the Quasi-Static Limit},
 journal = {Computational Particle Mechanics},
 year = {2020}
}

CITE-CITE-CITE-CITE-CITE-CITE-CITE-CITE-CITE-CITE-CITE-CITE-CITE

Switching to 'neigh_modify every 1 delay 0 check yes' setting during minimization
PPPM initialization ...
WARNING: System is not charge neutral, net charge = -0.0006 (src/kspace.cpp:327)
  using 12-bit tables for long-range coulomb (src/kspace.cpp:342)
  G vector (1/distance) = 0.14809026
  grid = 3 3 3
  stencil order = 5
  estimated absolute RMS force accuracy = 0.031780157
  estimated relative force accuracy = 9.5704998e-05
  using double precision FFTW3
  3d grid and FFT values/proc = 512 27
Generated 28 of 28 mixed pair_coeff terms from geometric mixing rule
Neighbor list info ...
  update: every = 1 steps, delay = 0 steps, check = yes
  max neighbors/atom: 2000, page size: 100000
  master list distance cutoff = 12
  ghost atom cutoff = 12
  binsize = 6, bins = 4 4 4
  1 neighbor lists, perpetual/occasional/extra = 1 0 0
  (1) pair lj/charmm/coul/long/opt, perpetual
      attributes: half, newton on
      pair build: half/multi/newton
      stencil: half/multi/3d
      bin: multi
Per MPI rank memory allocation (min/avg/max) = 31.81 | 31.81 | 31.81 Mbytes
------------ Step              0 ----- CPU =            0 (sec) -------------
TotEng   =   47704.533545 KinEng   =       0.000000 Temp     =       0.000000 
PotEng   =   47704.533545 E_bond   =     110.088059 E_angle  =      36.601372 
E_dihed  =      19.805602 E_impro  =       3.329327 E_vdwl   =   47535.850125 
E_coul   =      24.998785 E_long   =     -26.139726 Press    = 1638373.059348
------------ Step             10 ----- CPU =   0.00256872 (sec) -------------
TotEng   =     597.920377 KinEng   =       0.000000 Temp     =       0.000000 
PotEng   =     597.920377 E_bond   =      29.092365 E_angle  =     169.454403 
E_dihed  =      21.557422 E_impro  =       0.961294 E_vdwl   =     378.488327 
E_coul   =      24.477605 E_long   =     -26.111039 Press    =   19084.343146
------------ Step             20 ----- CPU =   0.00629616 (sec) -------------
TotEng   =     251.400869 KinEng   =       0.000000 Temp     =       0.000000 
PotEng   =     251.400869 E_bond   =      35.486856 E_angle  =     124.681133 
E_dihed  =      28.320567 E_impro  =       0.442818 E_vdwl   =      64.430126 
E_coul   =      24.144625 E_long   =     -26.105256 Press    =    2737.856208
------------ Step             30 ----- CPU =   0.01036949 (sec) -------------
TotEng   =     227.516513 KinEng   =       0.000000 Temp     =       0.000000 
PotEng   =     227.516513 E_bond   =      39.577644 E_angle  =     129.257455 
E_dihed  =      30.448941 E_impro  =       0.382425 E_vdwl   =      29.787160 
E_coul   =      24.171765 E_long   =     -26.108877 Press    =     322.989642
------------ Step             40 ----- CPU =   0.01421708 (sec) -------------
TotEng   =     221.209068 KinEng   =       0.000000 Temp     =       0.000000 
PotEng   =     221.209068 E_bond   =      34.449876 E_angle  =     129.072752 
E_dihed  =      30.985332 E_impro  =       0.486331 E_vdwl   =      28.217525 
E_coul   =      24.114009 E_long   =     -26.116757 Press    =     324.789182
------------ Step             50 ----- CPU =   0.01822545 (sec) -------------
TotEng   =     216.991036 KinEng   =       0.000000 Temp     =       0.000000 
PotEng   =     216.991036 E_bond   =      33.867072 E_angle  =     124.135836 
E_dihed  =      31.078116 E_impro  =       0.644274 E_vdwl   =      29.434905 
E_coul   =      23.958099 E_long   =     -26.127267 Press    =     392.879212
------------ Step             60 ----- CPU =   0.02270641 (sec) -------------
TotEng   =     212.384925 KinEng   =       0.000000 Temp     =       0.000000 
PotEng   =     212.384925 E_bond   =      32.941442 E_angle  =     125.712226 
E_dihed  =      31.963677 E_impro  =       0.640118 E_vdwl   =      23.375518 
E_coul   =      23.887523 E_long   =     -26.135579 Press    =      12.164849
------------ Step             70 ----- CPU =   0.02658253 (sec) -------------
TotEng   =     210.399406 KinEng   =       0.000000 Temp     =       0.000000 
PotEng   =     210.399406 E_bond   =      31.695351 E_angle  =     125.600398 
E_dihed  =      32.817468 E_impro  =       0.503586 E_vdwl   =      22.048827 
E_coul   =      23.870748 E_long   =     -26.136973 Press    =       0.965518
------------ Step             80 ----- CPU =   0.03062984 (sec) -------------
TotEng   =     209.049113 KinEng   =       0.000000 Temp     =       0.000000 
PotEng   =     209.049113 E_bond   =      30.766347 E_angle  =     124.672378 
E_dihed  =      32.307476 E_impro  =       0.411469 E_vdwl   =      23.242271 
E_coul   =      23.783495 E_long   =     -26.134322 Press    =      33.915665
------------ Step             90 ----- CPU =   0.03448638 (sec) -------------
TotEng   =     207.448591 KinEng   =       0.000000 Temp     =       0.000000 
PotEng   =     207.448591 E_bond   =      31.225452 E_angle  =     123.481526 
E_dihed  =      31.373812 E_impro  =       0.516549 E_vdwl   =      23.318871 
E_coul   =      23.659632 E_long   =     -26.127251 Press    =    -164.621912
------------ Step            100 ----- CPU =   0.03913694 (sec) -------------
TotEng   =     206.153598 KinEng   =       0.000000 Temp     =       0.000000 
PotEng   =     206.153598 E_bond   =      31.528228 E_angle  =     124.277943 
E_dihed  =      30.527491 E_impro  =       0.589544 E_vdwl   =      21.593611 
E_coul   =      23.756370 E_long   =     -26.119589 Press    =    -305.719566
------------ Step            110 ----- CPU =   0.04303095 (sec) -------------
TotEng   =     205.079417 KinEng   =       0.000000 Temp     =       0.000000 
PotEng   =     205.079417 E_bond   =      31.299808 E_angle  =     123.410914 
E_dihed  =      29.612411 E_impro  =       0.556587 E_vdwl   =      22.549340 
E_coul   =      23.765224 E_long   =     -26.114867 Press    =    -207.537065
------------ Step            120 ----- CPU =   0.04688708 (sec) -------------
TotEng   =     204.352328 KinEng   =       0.000000 Temp     =       0.000000 
PotEng   =     204.352328 E_bond   =      30.995024 E_angle  =     123.620388 
E_dihed  =      28.607044 E_impro  =       0.552483 E_vdwl   =      22.937203 
E_coul   =      23.754377 E_long   =     -26.114190 Press    =     -90.215712
------------ Step            130 ----- CPU =   0.05092537 (sec) -------------
TotEng   =     203.731818 KinEng   =       0.000000 Temp     =       0.000000 
PotEng   =     203.731818 E_bond   =      30.947114 E_angle  =     124.573347 
E_dihed  =      28.045100 E_impro  =       0.551617 E_vdwl   =      22.006414 
E_coul   =      23.723365 E_long   =     -26.115139 Press    =    -102.783742
------------ Step            140 ----- CPU =   0.05478834 (sec) -------------
TotEng   =     203.095695 KinEng   =       0.000000 Temp     =       0.000000 
PotEng   =     203.095695 E_bond   =      31.057061 E_angle  =     125.225172 
E_dihed  =      27.743098 E_impro  =       0.595925 E_vdwl   =      20.885739 
E_coul   =      23.705312 E_long   =     -26.116612 Press    =    -113.035529
------------ Step            150 ----- CPU =    0.0588041 (sec) -------------
TotEng   =     202.470138 KinEng   =       0.000000 Temp     =       0.000000 
PotEng   =     202.470138 E_bond   =      30.767224 E_angle  =     125.614904 
E_dihed  =      26.866857 E_impro  =       0.559660 E_vdwl   =      21.099714 
E_coul   =      23.679802 E_long   =     -26.118023 Press    =     -50.104036
------------ Step            160 ----- CPU =   0.06323026 (sec) -------------
TotEng   =     201.553645 KinEng   =       0.000000 Temp     =       0.000000 
PotEng   =     201.553645 E_bond   =      30.835452 E_angle  =     126.616400 
E_dihed  =      25.296671 E_impro  =       0.583896 E_vdwl   =      20.737043 
E_coul   =      23.599517 E_long   =     -26.115335 Press    =     -71.042732
------------ Step            170 ----- CPU =   0.06713126 (sec) -------------
TotEng   =     200.865018 KinEng   =       0.000000 Temp     =       0.000000 
PotEng   =     200.865018 E_bond   =      31.579615 E_angle  =     128.893860 
E_dihed  =      24.435384 E_impro  =       0.544459 E_vdwl   =      17.964705 
E_coul   =      23.559613 E_long   =     -26.112619 Press    =    -302.580969
------------ Step            180 ----- CPU =   0.07118185 (sec) -------------
TotEng   =     200.420120 KinEng   =       0.000000 Temp     =       0.000000 
PotEng   =     200.420120 E_bond   =      31.273310 E_angle  =     129.037278 
E_dihed  =      24.315382 E_impro  =       0.535890 E_vdwl   =      17.837113 
E_coul   =      23.533546 E_long   =     -26.112399 Press    =    -303.484821
------------ Step            188 ----- CPU =   0.07462447 (sec) -------------
TotEng   =     200.035867 KinEng   =       0.000000 Temp     =       0.000000 
PotEng   =     200.035867 E_bond   =      31.131812 E_angle  =     128.152434 
E_dihed  =      24.365148 E_impro  =       0.493468 E_vdwl   =      18.611141 
E_coul   =      23.394734 E_long   =     -26.112871 Press    =    -244.827130
Loop time of 0.0746368 on 1 procs for 188 steps with 122 atoms

99.7% CPU use with 1 MPI tasks x 1 OpenMP threads

Minimization stats:
  Stopping criterion = energy tolerance
  Energy initial, next-to-last, final = 
      47704.5335448023   200.047484332778   200.035866880243
  Force two-norm initial, final = 806464.23 7.9392621
  Force max component initial, final = 496010.83 2.4963544
  Final line search alpha, max atom move = 0.0072458661 0.01808825
  Iterations, force evaluations = 188 365

MPI task timing breakdown:
Section |  min time  |  avg time  |  max time  |%varavg| %total
---------------------------------------------------------------
Pair    | 0.041457   | 0.041457   | 0.041457   |   0.0 | 55.54
Bond    | 0.012088   | 0.012088   | 0.012088   |   0.0 | 16.20
Kspace  | 0.014642   | 0.014642   | 0.014642   |   0.0 | 19.62
Neigh   | 0.0021075  | 0.0021075  | 0.0021075  |   0.0 |  2.82
Comm    | 0.0017894  | 0.0017894  | 0.0017894  |   0.0 |  2.40
Output  | 0.001468   | 0.001468   | 0.001468   |   0.0 |  1.97
Modify  | 0          | 0          | 0          |   0.0 |  0.00
Other   |            | 0.001085   |            |       |  1.45

Nlocal:            122 ave         122 max         122 min
Histogram: 1 0 0 0 0 0 0 0 0 0
Nghost:           1389 ave        1389 max        1389 min
Histogram: 1 0 0 0 0 0 0 0 0 0
Neighs:           6228 ave        6228 max        6228 min
Histogram: 1 0 0 0 0 0 0 0 0 0

Total # of neighbors = 6228
Ave neighs/atom = 51.04918
Ave special neighs/atom = 10.967213
Neighbor list builds = 4
Dangerous builds = 0
min_style            sd
minimize             1.0e-4 1.0e-4 500 5000
Switching to 'neigh_modify every 1 delay 0 check yes' setting during minimization
PPPM initialization ...
  using 12-bit tables for long-range coulomb (src/kspace.cpp:342)
  G vector (1/distance) = 0.14809026
  grid = 3 3 3
  stencil order = 5
  estimated absolute RMS force accuracy = 0.031780157
  estimated relative force accuracy = 9.5704998e-05
  using double precision FFTW3
  3d grid and FFT values/proc = 512 27
Generated 28 of 28 mixed pair_coeff terms from geometric mixing rule
Per MPI rank memory allocation (min/avg/max) = 31.81 | 31.81 | 31.81 Mbytes
------------ Step            188 ----- CPU =            0 (sec) -------------
TotEng   =     200.035867 KinEng   =       0.000000 Temp     =       0.000000 
PotEng   =     200.035867 E_bond   =      31.131812 E_angle  =     128.152434 
E_dihed  =      24.365148 E_impro  =       0.493468 E_vdwl   =      18.611141 
E_coul   =      23.394734 E_long   =     -26.112871 Press    =    -244.827130
------------ Step            189 ----- CPU =  0.000804154 (sec) -------------
TotEng   =     200.022604 KinEng   =       0.000000 Temp     =       0.000000 
PotEng   =     200.022604 E_bond   =      31.117093 E_angle  =     128.172458 
E_dihed  =      24.368198 E_impro  =       0.491548 E_vdwl   =      18.592177 
E_coul   =      23.394101 E_long   =     -26.112973 Press    =    -238.771433
Loop time of 0.000816588 on 1 procs for 1 steps with 122 atoms

98.5% CPU use with 1 MPI tasks x 1 OpenMP threads

Minimization stats:
  Stopping criterion = energy tolerance
  Energy initial, next-to-last, final = 
      200.035866880243   200.035866880243   200.022603778672
  Force two-norm initial, final = 7.9392621 3.8110841
  Force max component initial, final = 2.4963544 0.90754027
  Final line search alpha, max atom move = 0.040058415 0.036354625
  Iterations, force evaluations = 1 2

MPI task timing breakdown:
Section |  min time  |  avg time  |  max time  |%varavg| %total
---------------------------------------------------------------
Pair    | 0.00036546 | 0.00036546 | 0.00036546 |   0.0 | 44.75
Bond    | 0.00010309 | 0.00010309 | 0.00010309 |   0.0 | 12.62
Kspace  | 0.00013859 | 0.00013859 | 0.00013859 |   0.0 | 16.97
Neigh   | 0          | 0          | 0          |   0.0 |  0.00
Comm    | 1.4285e-05 | 1.4285e-05 | 1.4285e-05 |   0.0 |  1.75
Output  | 0          | 0          | 0          |   0.0 |  0.00
Modify  | 0          | 0          | 0          |   0.0 |  0.00
Other   |            | 0.0001952  |            |       | 23.90

Nlocal:            122 ave         122 max         122 min
Histogram: 1 0 0 0 0 0 0 0 0 0
Nghost:           1380 ave        1380 max        1380 min
Histogram: 1 0 0 0 0 0 0 0 0 0
Neighs:           6210 ave        6210 max        6210 min
Histogram: 1 0 0 0 0 0 0 0 0 0

Total # of neighbors = 6210
Ave neighs/atom = 50.901639
Ave special neighs/atom = 10.967213
Neighbor list builds = 0
Dangerous builds = 0
#now                 minimize the entire system
minimize             1.0e-4 1.0e-4 500 5000
Switching to 'neigh_modify every 1 delay 0 check yes' setting during minimization
PPPM initialization ...
  using 12-bit tables for long-range coulomb (src/kspace.cpp:342)
  G vector (1/distance) = 0.14809026
  grid = 3 3 3
  stencil order = 5
  estimated absolute RMS force accuracy = 0.031780157
  estimated relative force accuracy = 9.5704998e-05
  using double precision FFTW3
  3d grid and FFT values/proc = 512 27
Generated 28 of 28 mixed pair_coeff terms from geometric mixing rule
Per MPI rank memory allocation (min/avg/max) = 31.81 | 31.81 | 31.81 Mbytes
------------ Step            189 ----- CPU =            0 (sec) -------------
TotEng   =     200.022604 KinEng   =       0.000000 Temp     =       0.000000 
PotEng   =     200.022604 E_bond   =      31.117093 E_angle  =     128.172458 
E_dihed  =      24.368198 E_impro  =       0.491548 E_vdwl   =      18.592177 
E_coul   =      23.394101 E_long   =     -26.112973 Press    =    -238.771433
------------ Step            190 ----- CPU =  0.000799255 (sec) -------------
TotEng   =     200.016996 KinEng   =       0.000000 Temp     =       0.000000 
PotEng   =     200.016996 E_bond   =      31.087918 E_angle  =     128.210667 
E_dihed  =      24.374062 E_impro  =       0.490804 E_vdwl   =      18.571334 
E_coul   =      23.395136 E_long   =     -26.112926 Press    =    -237.167167
Loop time of 0.000811488 on 1 procs for 1 steps with 122 atoms

99.7% CPU use with 1 MPI tasks x 1 OpenMP threads

Minimization stats:
  Stopping criterion = energy tolerance
  Energy initial, next-to-last, final = 
      200.022603778672   200.022603778672   200.016996122768
  Force two-norm initial, final = 3.8110841 5.2361291
  Force max component initial, final = 0.90754027 1.7139936
  Final line search alpha, max atom move = 0.11018795 0.18886143
  Iterations, force evaluations = 1 2

MPI task timing breakdown:
Section |  min time  |  avg time  |  max time  |%varavg| %total
---------------------------------------------------------------
Pair    | 0.00037482 | 0.00037482 | 0.00037482 |   0.0 | 46.19
Bond    | 0.00010998 | 0.00010998 | 0.00010998 |   0.0 | 13.55
Kspace  | 0.00012032 | 0.00012032 | 0.00012032 |   0.0 | 14.83
Neigh   | 0          | 0          | 0          |   0.0 |  0.00
Comm    | 1.4158e-05 | 1.4158e-05 | 1.4158e-05 |   0.0 |  1.74
Output  | 0          | 0          | 0          |   0.0 |  0.00
Modify  | 0          | 0          | 0          |   0.0 |  0.00
Other   |            | 0.0001922  |            |       | 23.69

Nlocal:            122 ave         122 max         122 min
Histogram: 1 0 0 0 0 0 0 0 0 0
Nghost:           1380 ave        1380 max        1380 min
Histogram: 1 0 0 0 0 0 0 0 0 0
Neighs:           6210 ave        6210 max        6210 min
Histogram: 1 0 0 0 0 0 0 0 0 0

Total # of neighbors = 6210
Ave neighs/atom = 50.901639
Ave special neighs/atom = 10.967213
Neighbor list builds = 0
Dangerous builds = 0
undump               1

print                .
.
print                =====================================
=====================================
print                "NVT dynamics to heat system"
NVT dynamics to heat system
print                =====================================
=====================================
print                .
.

reset_timestep       0
##fix                  shakeH all shake 0.0001 20 500 m 1.0079
velocity             all create 0.0 12345678 dist uniform
thermo               100
dump                 1 all custom 1000 ${sname}.heat.lammpstrj id type xu yu zu vx vy vz
dump                 1 all custom 1000 simplified_mc.heat.lammpstrj id type xu yu zu vx vy vz
fix                  4 all nvt temp 1.0 300.0 100.0
run                  10000
PPPM initialization ...
  using 12-bit tables for long-range coulomb (src/kspace.cpp:342)
  G vector (1/distance) = 0.14809026
  grid = 3 3 3
  stencil order = 5
  estimated absolute RMS force accuracy = 0.031780157
  estimated relative force accuracy = 9.5704998e-05
  using double precision FFTW3
  3d grid and FFT values/proc = 512 27
Generated 28 of 28 mixed pair_coeff terms from geometric mixing rule
Per MPI rank memory allocation (min/avg/max) = 30.68 | 30.68 | 30.68 Mbytes
------------ Step              0 ----- CPU =            0 (sec) -------------
TotEng   =     200.016996 KinEng   =       0.000000 Temp     =       0.000000 
PotEng   =     200.016996 E_bond   =      31.087918 E_angle  =     128.210667 
E_dihed  =      24.374062 E_impro  =       0.490804 E_vdwl   =      18.571334 
E_coul   =      23.395136 E_long   =     -26.112926 Press    =    -237.167167
------------ Step            100 ----- CPU =   0.01374104 (sec) -------------
TotEng   =     200.078561 KinEng   =       0.350876 Temp     =       0.972824 
PotEng   =     199.727685 E_bond   =      31.028896 E_angle  =     127.786635 
E_dihed  =      24.797755 E_impro  =       0.526727 E_vdwl   =      18.274321 
E_coul   =      23.427525 E_long   =     -26.114173 Press    =    -204.239772
------------ Step            200 ----- CPU =   0.02712451 (sec) -------------
TotEng   =     200.249020 KinEng   =       0.807823 Temp     =       2.239733 
PotEng   =     199.441197 E_bond   =      31.082831 E_angle  =     127.259381 
E_dihed  =      25.356525 E_impro  =       0.571450 E_vdwl   =      17.779624 
E_coul   =      23.503043 E_long   =     -26.111656 Press    =    -153.116773
------------ Step            300 ----- CPU =   0.04048563 (sec) -------------
TotEng   =     200.457237 KinEng   =       1.182902 Temp     =       3.279661 
PotEng   =     199.274336 E_bond   =      30.860347 E_angle  =     127.069958 
E_dihed  =      26.213932 E_impro  =       0.650542 E_vdwl   =      17.108311 
E_coul   =      23.482247 E_long   =     -26.111002 Press    =    -156.782070
------------ Step            400 ----- CPU =   0.05386163 (sec) -------------
TotEng   =     200.860791 KinEng   =       1.895973 Temp     =       5.256690 
PotEng   =     198.964818 E_bond   =      30.295682 E_angle  =     127.050426 
E_dihed  =      26.833684 E_impro  =       0.698980 E_vdwl   =      16.707212 
E_coul   =      23.489707 E_long   =     -26.110872 Press    =     -58.090841
------------ Step            500 ----- CPU =   0.06718633 (sec) -------------
TotEng   =     201.538553 KinEng   =       2.826598 Temp     =       7.836902 
PotEng   =     198.711954 E_bond   =      30.214288 E_angle  =     127.743210 
E_dihed  =      26.880849 E_impro  =       0.649319 E_vdwl   =      15.809300 
E_coul   =      23.521224 E_long   =     -26.106235 Press    =    -105.998873
------------ Step            600 ----- CPU =   0.08057751 (sec) -------------
TotEng   =     202.449443 KinEng   =       3.643820 Temp     =      10.102695 
PotEng   =     198.805623 E_bond   =      30.388869 E_angle  =     128.895252 
E_dihed  =      26.971552 E_impro  =       0.532898 E_vdwl   =      14.575012 
E_coul   =      23.547277 E_long   =     -26.105237 Press    =    -190.668209
------------ Step            700 ----- CPU =   0.09393133 (sec) -------------
TotEng   =     203.494488 KinEng   =       4.312317 Temp     =      11.956140 
PotEng   =     199.182171 E_bond   =      30.479610 E_angle  =     129.257031 
E_dihed  =      27.105526 E_impro  =       0.468530 E_vdwl   =      14.467463 
E_coul   =      23.510321 E_long   =     -26.106311 Press    =    -185.314555
------------ Step            800 ----- CPU =    0.1081569 (sec) -------------
TotEng   =     204.798068 KinEng   =       5.284110 Temp     =      14.650492 
PotEng   =     199.513958 E_bond   =      30.422777 E_angle  =     128.978305 
E_dihed  =      27.005025 E_impro  =       0.487227 E_vdwl   =      15.212255 
E_coul   =      23.514983 E_long   =     -26.106614 Press    =     -92.427718
------------ Step            900 ----- CPU =    0.1216029 (sec) -------------
TotEng   =     206.509216 KinEng   =       7.408683 Temp     =      20.540989 
PotEng   =     199.100533 E_bond   =      30.795834 E_angle  =     127.569079 
E_dihed  =      27.091729 E_impro  =       0.480176 E_vdwl   =      15.727353 
E_coul   =      23.550022 E_long   =     -26.113661 Press    =     -36.303690
------------ Step           1000 ----- CPU =    0.1358465 (sec) -------------
TotEng   =     208.474224 KinEng   =       9.937473 Temp     =      27.552202 
PotEng   =     198.536751 E_bond   =      32.147476 E_angle  =     126.595964 
E_dihed  =      27.513752 E_impro  =       0.468275 E_vdwl   =      14.529140 
E_coul   =      23.403193 E_long   =     -26.121049 Press    =    -130.842665
------------ Step           1100 ----- CPU =     0.149183 (sec) -------------
TotEng   =     210.733180 KinEng   =      12.086096 Temp     =      33.509377 
PotEng   =     198.647085 E_bond   =      32.977729 E_angle  =     127.372291 
E_dihed  =      27.356506 E_impro  =       0.529458 E_vdwl   =      13.019297 
E_coul   =      23.518231 E_long   =     -26.126427 Press    =    -274.135362
------------ Step           1200 ----- CPU =    0.1633151 (sec) -------------
TotEng   =     212.732879 KinEng   =      14.782860 Temp     =      40.986309 
PotEng   =     197.950019 E_bond   =      32.173181 E_angle  =     127.812208 
E_dihed  =      26.917702 E_impro  =       0.584147 E_vdwl   =      13.071612 
E_coul   =      23.526444 E_long   =     -26.135275 Press    =    -236.547157
------------ Step           1300 ----- CPU =    0.1774891 (sec) -------------
TotEng   =     213.977437 KinEng   =      13.976071 Temp     =      38.749439 
PotEng   =     200.001366 E_bond   =      30.585106 E_angle  =     128.914492 
E_dihed  =      26.802714 E_impro  =       0.580406 E_vdwl   =      15.866451 
E_coul   =      23.399484 E_long   =     -26.147287 Press    =      -1.505546
------------ Step           1400 ----- CPU =    0.1908722 (sec) -------------
TotEng   =     215.150785 KinEng   =      12.185205 Temp     =      33.784164 
PotEng   =     202.965580 E_bond   =      30.661400 E_angle  =     131.871323 
E_dihed  =      28.181668 E_impro  =       0.506525 E_vdwl   =      14.573939 
E_coul   =      23.332146 E_long   =     -26.161421 Press    =     -96.424928
------------ Step           1500 ----- CPU =    0.2049044 (sec) -------------
TotEng   =     217.199711 KinEng   =      12.555907 Temp     =      34.811954 
PotEng   =     204.643804 E_bond   =      31.706532 E_angle  =     135.031706 
E_dihed  =      28.990524 E_impro  =       0.598886 E_vdwl   =      11.161952 
E_coul   =      23.325248 E_long   =     -26.171044 Press    =    -424.600009
------------ Step           1600 ----- CPU =    0.2182253 (sec) -------------
TotEng   =     220.061713 KinEng   =      14.814775 Temp     =      41.074794 
PotEng   =     205.246937 E_bond   =      30.919214 E_angle  =     134.374547 
E_dihed  =      30.847542 E_impro  =       0.759303 E_vdwl   =      11.097718 
E_coul   =      23.419004 E_long   =     -26.170391 Press    =    -340.446041
------------ Step           1700 ----- CPU =    0.2323574 (sec) -------------
TotEng   =     223.102542 KinEng   =      16.860004 Temp     =      46.745306 
PotEng   =     206.242538 E_bond   =      29.248382 E_angle  =     133.345675 
E_dihed  =      32.219299 E_impro  =       0.739937 E_vdwl   =      13.542851 
E_coul   =      23.315361 E_long   =     -26.168968 Press    =     218.653857
------------ Step           1800 ----- CPU =    0.2463363 (sec) -------------
TotEng   =     226.376649 KinEng   =      22.347509 Temp     =      61.959722 
PotEng   =     204.029139 E_bond   =      29.372556 E_angle  =     133.935710 
E_dihed  =      30.939306 E_impro  =       0.690878 E_vdwl   =      11.834913 
E_coul   =      23.432454 E_long   =     -26.176678 Press    =     215.909756
------------ Step           1900 ----- CPU =    0.2603441 (sec) -------------
TotEng   =     228.273960 KinEng   =      26.891500 Temp     =      74.558189 
PotEng   =     201.382461 E_bond   =      29.607897 E_angle  =     134.946495 
E_dihed  =      30.231064 E_impro  =       0.623904 E_vdwl   =       8.813921 
E_coul   =      23.342863 E_long   =     -26.183683 Press    =      47.455295
------------ Step           2000 ----- CPU =    0.2745401 (sec) -------------
TotEng   =     227.100195 KinEng   =      24.725466 Temp     =      68.552740 
PotEng   =     202.374729 E_bond   =      28.306723 E_angle  =     136.171295 
E_dihed  =      32.192666 E_impro  =       0.692956 E_vdwl   =       8.067126 
E_coul   =      23.125566 E_long   =     -26.181603 Press    =      71.991976
------------ Step           2100 ----- CPU =    0.2884606 (sec) -------------
TotEng   =     224.953440 KinEng   =      20.959974 Temp     =      58.112702 
PotEng   =     203.993466 E_bond   =      26.982508 E_angle  =     138.058557 
E_dihed  =      32.449666 E_impro  =       0.601478 E_vdwl   =       8.753529 
E_coul   =      23.327912 E_long   =     -26.180184 Press    =     188.828978
------------ Step           2200 ----- CPU =    0.3023367 (sec) -------------
TotEng   =     223.398288 KinEng   =      22.196535 Temp     =      61.541136 
PotEng   =     201.201754 E_bond   =      26.072184 E_angle  =     136.286736 
E_dihed  =      31.954855 E_impro  =       0.766729 E_vdwl   =       9.062946 
E_coul   =      23.242497 E_long   =     -26.184195 Press    =     206.549192
------------ Step           2300 ----- CPU =    0.3162315 (sec) -------------
TotEng   =     222.909701 KinEng   =      20.893543 Temp     =      57.928519 
PotEng   =     202.016158 E_bond   =      26.075555 E_angle  =     137.906999 
E_dihed  =      33.422910 E_impro  =       0.705927 E_vdwl   =       6.735501 
E_coul   =      23.348059 E_long   =     -26.178794 Press    =      30.309752
------------ Step           2400 ----- CPU =    0.3301298 (sec) -------------
TotEng   =     223.978595 KinEng   =      24.151289 Temp     =      66.960803 
PotEng   =     199.827306 E_bond   =      25.901695 E_angle  =     137.370125 
E_dihed  =      33.276506 E_impro  =       0.882127 E_vdwl   =       5.268957 
E_coul   =      23.298193 E_long   =     -26.170297 Press    =      42.874986
------------ Step           2500 ----- CPU =    0.3441418 (sec) -------------
TotEng   =     226.474594 KinEng   =      27.429468 Temp     =      76.049738 
PotEng   =     199.045126 E_bond   =      26.075833 E_angle  =     136.284212 
E_dihed  =      33.332034 E_impro  =       0.887283 E_vdwl   =       5.275675 
E_coul   =      23.352146 E_long   =     -26.162056 Press    =    -291.633958
------------ Step           2600 ----- CPU =     0.358108 (sec) -------------
TotEng   =     228.912256 KinEng   =      28.431757 Temp     =      78.828640 
PotEng   =     200.480499 E_bond   =      26.622947 E_angle  =     137.587519 
E_dihed  =      33.192123 E_impro  =       0.858763 E_vdwl   =       5.112455 
E_coul   =      23.271283 E_long   =     -26.164592 Press    =    -524.122222
------------ Step           2700 ----- CPU =    0.3720449 (sec) -------------
TotEng   =     231.359403 KinEng   =      28.057854 Temp     =      77.791970 
PotEng   =     203.301549 E_bond   =      27.088237 E_angle  =     135.392366 
E_dihed  =      36.157478 E_impro  =       0.910663 E_vdwl   =       6.771218 
E_coul   =      23.152529 E_long   =     -26.170942 Press    =    -276.177591
------------ Step           2800 ----- CPU =      0.38606 (sec) -------------
TotEng   =     234.108143 KinEng   =      28.549542 Temp     =      79.155203 
PotEng   =     205.558602 E_bond   =      26.627588 E_angle  =     138.606222 
E_dihed  =      35.813353 E_impro  =       0.752464 E_vdwl   =       6.829374 
E_coul   =      23.101485 E_long   =     -26.171885 Press    =     333.778039
------------ Step           2900 ----- CPU =     0.400089 (sec) -------------
TotEng   =     237.673827 KinEng   =      33.331938 Temp     =      92.414665 
PotEng   =     204.341888 E_bond   =      25.785068 E_angle  =     142.775239 
E_dihed  =      35.227385 E_impro  =       0.559796 E_vdwl   =       2.934798 
E_coul   =      23.242558 E_long   =     -26.182955 Press    =       6.841808
------------ Step           3000 ----- CPU =    0.4143801 (sec) -------------
TotEng   =     240.194534 KinEng   =      35.399932 Temp     =      98.148293 
PotEng   =     204.794602 E_bond   =      23.441429 E_angle  =     145.575713 
E_dihed  =      38.993292 E_impro  =       0.757701 E_vdwl   =      -0.915241 
E_coul   =      23.113055 E_long   =     -26.171347 Press    =     -41.514224
------------ Step           3100 ----- CPU =    0.4284248 (sec) -------------
TotEng   =     241.695015 KinEng   =      32.858557 Temp     =      91.102190 
PotEng   =     208.836458 E_bond   =      22.443660 E_angle  =     147.376154 
E_dihed  =      41.760999 E_impro  =       1.153197 E_vdwl   =      -0.687759 
E_coul   =      22.943381 E_long   =     -26.153173 Press    =     179.689763
------------ Step           3200 ----- CPU =    0.4424609 (sec) -------------
TotEng   =     243.279571 KinEng   =      38.058519 Temp     =     105.519375 
PotEng   =     205.221052 E_bond   =      22.985308 E_angle  =     148.108331 
E_dihed  =      37.500977 E_impro  =       1.044826 E_vdwl   =      -1.066884 
E_coul   =      22.819237 E_long   =     -26.170743 Press    =     -89.414833
------------ Step           3300 ----- CPU =    0.4558455 (sec) -------------
TotEng   =     243.336464 KinEng   =      40.341064 Temp     =     111.847859 
PotEng   =     202.995401 E_bond   =      25.000015 E_angle  =     150.253384 
E_dihed  =      29.607518 E_impro  =       0.710836 E_vdwl   =       0.527291 
E_coul   =      23.048298 E_long   =     -26.151941 Press    =    -172.381969
------------ Step           3400 ----- CPU =    0.4699695 (sec) -------------
TotEng   =     241.474642 KinEng   =      33.749632 Temp     =      93.572744 
PotEng   =     207.725011 E_bond   =      25.323315 E_angle  =     153.381252 
E_dihed  =      28.845150 E_impro  =       0.599008 E_vdwl   =       2.752657 
E_coul   =      22.977788 E_long   =     -26.154160 Press    =    -233.600950
------------ Step           3500 ----- CPU =    0.4840199 (sec) -------------
TotEng   =     241.031003 KinEng   =      34.738474 Temp     =      96.314366 
PotEng   =     206.292528 E_bond   =      25.159359 E_angle  =     149.267703 
E_dihed  =      30.260634 E_impro  =       0.624478 E_vdwl   =       4.327424 
E_coul   =      22.816214 E_long   =     -26.163284 Press    =     -40.046596
------------ Step           3600 ----- CPU =    0.4981083 (sec) -------------
TotEng   =     242.494989 KinEng   =      37.886225 Temp     =     105.041682 
PotEng   =     204.608764 E_bond   =      26.835159 E_angle  =     145.195285 
E_dihed  =      32.362555 E_impro  =       0.840203 E_vdwl   =       2.534037 
E_coul   =      22.995063 E_long   =     -26.153538 Press    =    -550.448454
------------ Step           3700 ----- CPU =    0.5115889 (sec) -------------
TotEng   =     244.743251 KinEng   =      41.835781 Temp     =     115.992047 
PotEng   =     202.907470 E_bond   =      28.316973 E_angle  =     137.809945 
E_dihed  =      36.842637 E_impro  =       0.794586 E_vdwl   =       2.252560 
E_coul   =      23.047895 E_long   =     -26.157127 Press    =    -651.834169
------------ Step           3800 ----- CPU =    0.5258096 (sec) -------------
TotEng   =     246.461457 KinEng   =      43.807808 Temp     =     121.459601 
PotEng   =     202.653649 E_bond   =      28.118918 E_angle  =     134.527047 
E_dihed  =      33.859436 E_impro  =       0.797664 E_vdwl   =       8.307218 
E_coul   =      23.198597 E_long   =     -26.155231 Press    =     185.631308
------------ Step           3900 ----- CPU =    0.5400792 (sec) -------------
TotEng   =     247.079740 KinEng   =      46.916230 Temp     =     130.077875 
PotEng   =     200.163510 E_bond   =      26.519449 E_angle  =     136.673248 
E_dihed  =      29.251018 E_impro  =       0.936093 E_vdwl   =       9.794943 
E_coul   =      23.149341 E_long   =     -26.160584 Press    =     108.532595
------------ Step           4000 ----- CPU =    0.5540631 (sec) -------------
TotEng   =     245.450348 KinEng   =      47.726782 Temp     =     132.325176 
PotEng   =     197.723567 E_bond   =      26.565291 E_angle  =     138.032924 
E_dihed  =      32.686292 E_impro  =       0.603224 E_vdwl   =       3.048904 
E_coul   =      22.959230 E_long   =     -26.172299 Press    =    -487.780982
------------ Step           4100 ----- CPU =    0.5685213 (sec) -------------
TotEng   =     241.888172 KinEng   =      47.981576 Temp     =     133.031608 
PotEng   =     193.906596 E_bond   =      26.304573 E_angle  =     132.721374 
E_dihed  =      35.572294 E_impro  =       0.771990 E_vdwl   =       1.720359 
E_coul   =      22.992263 E_long   =     -26.176257 Press    =     -86.383141
------------ Step           4200 ----- CPU =    0.5829681 (sec) -------------
TotEng   =     237.695345 KinEng   =      43.820247 Temp     =     121.494088 
PotEng   =     193.875099 E_bond   =      25.033902 E_angle  =     133.057133 
E_dihed  =      37.775605 E_impro  =       0.695154 E_vdwl   =       0.417301 
E_coul   =      23.071015 E_long   =     -26.175012 Press    =       2.810286
------------ Step           4300 ----- CPU =    0.5973603 (sec) -------------
TotEng   =     235.584250 KinEng   =      39.450682 Temp     =     109.379227 
PotEng   =     196.133567 E_bond   =      23.631075 E_angle  =     130.896941 
E_dihed  =      41.480733 E_impro  =       0.836646 E_vdwl   =       2.362878 
E_coul   =      23.097033 E_long   =     -26.171740 Press    =    -218.988990
------------ Step           4400 ----- CPU =    0.6118118 (sec) -------------
TotEng   =     236.523715 KinEng   =      42.633076 Temp     =     118.202590 
PotEng   =     193.890639 E_bond   =      23.129172 E_angle  =     131.909963 
E_dihed  =      40.943409 E_impro  =       0.715495 E_vdwl   =       0.390983 
E_coul   =      22.971137 E_long   =     -26.169522 Press    =      74.388933
------------ Step           4500 ----- CPU =    0.6256406 (sec) -------------
TotEng   =     240.138924 KinEng   =      50.139641 Temp     =     139.014962 
PotEng   =     189.999283 E_bond   =      23.174018 E_angle  =     125.903447 
E_dihed  =      39.183782 E_impro  =       0.831053 E_vdwl   =       4.039696 
E_coul   =      23.039036 E_long   =     -26.171748 Press    =     272.853549
------------ Step           4600 ----- CPU =    0.6403398 (sec) -------------
TotEng   =     243.303816 KinEng   =      46.479435 Temp     =     128.866837 
PotEng   =     196.824381 E_bond   =      23.561883 E_angle  =     125.911076 
E_dihed  =      41.391249 E_impro  =       0.566190 E_vdwl   =       8.614370 
E_coul   =      22.952723 E_long   =     -26.173110 Press    =      39.503771
------------ Step           4700 ----- CPU =    0.6549481 (sec) -------------
TotEng   =     247.077963 KinEng   =      47.136496 Temp     =     130.688577 
PotEng   =     199.941466 E_bond   =      23.533527 E_angle  =     131.719060 
E_dihed  =      38.884510 E_impro  =       0.774843 E_vdwl   =       8.244806 
E_coul   =      22.960897 E_long   =     -26.176177 Press    =     135.818829
------------ Step           4800 ----- CPU =    0.6695125 (sec) -------------
TotEng   =     251.278922 KinEng   =      51.333732 Temp     =     142.325646 
PotEng   =     199.945190 E_bond   =      22.409187 E_angle  =     135.766134 
E_dihed  =      38.601977 E_impro  =       0.779249 E_vdwl   =       5.470075 
E_coul   =      23.093519 E_long   =     -26.174951 Press    =     186.840623
------------ Step           4900 ----- CPU =    0.6840878 (sec) -------------
TotEng   =     254.900138 KinEng   =      55.593471 Temp     =     154.136012 
PotEng   =     199.306667 E_bond   =      23.965368 E_angle  =     137.186857 
E_dihed  =      42.618732 E_impro  =       1.109338 E_vdwl   =      -2.553680 
E_coul   =      23.149160 E_long   =     -26.169109 Press    =    -270.747653
------------ Step           5000 ----- CPU =    0.6988529 (sec) -------------
TotEng   =     256.361486 KinEng   =      63.916906 Temp     =     177.213202 
PotEng   =     192.444580 E_bond   =      22.696994 E_angle  =     133.050815 
E_dihed  =      38.467951 E_impro  =       0.510102 E_vdwl   =       1.036277 
E_coul   =      22.863046 E_long   =     -26.180606 Press    =     332.199541
------------ Step           5100 ----- CPU =    0.7133105 (sec) -------------
TotEng   =     253.144979 KinEng   =      64.147414 Temp     =     177.852299 
PotEng   =     188.997565 E_bond   =      19.546304 E_angle  =     137.861127 
E_dihed  =      35.965987 E_impro  =       0.539632 E_vdwl   =      -1.774339 
E_coul   =      23.056454 E_long   =     -26.197601 Press    =    -308.338403
------------ Step           5200 ----- CPU =    0.7276631 (sec) -------------
TotEng   =     248.053547 KinEng   =      54.231234 Temp     =     150.359134 
PotEng   =     193.822313 E_bond   =      20.262550 E_angle  =     137.710928 
E_dihed  =      40.520060 E_impro  =       0.930038 E_vdwl   =      -2.595312 
E_coul   =      23.187079 E_long   =     -26.193030 Press    =    -487.968832
------------ Step           5300 ----- CPU =    0.7415452 (sec) -------------
TotEng   =     245.832325 KinEng   =      56.628486 Temp     =     157.005650 
PotEng   =     189.203839 E_bond   =      20.933194 E_angle  =     135.111188 
E_dihed  =      39.894563 E_impro  =       1.160904 E_vdwl   =      -4.706262 
E_coul   =      23.002893 E_long   =     -26.192641 Press    =     291.040851
------------ Step           5400 ----- CPU =    0.7559609 (sec) -------------
TotEng   =     244.560564 KinEng   =      57.742258 Temp     =     160.093643 
PotEng   =     186.818306 E_bond   =      20.980238 E_angle  =     137.652341 
E_dihed  =      37.074540 E_impro  =       0.537472 E_vdwl   =      -6.203671 
E_coul   =      22.980709 E_long   =     -26.203322 Press    =      56.842395
------------ Step           5500 ----- CPU =    0.7703236 (sec) -------------
TotEng   =     243.364954 KinEng   =      58.695780 Temp     =     162.737337 
PotEng   =     184.669174 E_bond   =      20.679604 E_angle  =     137.880490 
E_dihed  =      37.189789 E_impro  =       0.784688 E_vdwl   =      -8.585368 
E_coul   =      22.925454 E_long   =     -26.205482 Press    =    -716.774798
------------ Step           5600 ----- CPU =    0.7840092 (sec) -------------
TotEng   =     242.426356 KinEng   =      62.542213 Temp     =     173.401788 
PotEng   =     179.884143 E_bond   =      18.299095 E_angle  =     134.244984 
E_dihed  =      38.849985 E_impro  =       0.535828 E_vdwl   =      -8.727009 
E_coul   =      22.882213 E_long   =     -26.200952 Press    =     267.815218
------------ Step           5700 ----- CPU =    0.7983883 (sec) -------------
TotEng   =     240.849819 KinEng   =      60.130931 Temp     =     166.716374 
PotEng   =     180.718888 E_bond   =      19.666279 E_angle  =     133.500744 
E_dihed  =      38.837621 E_impro  =       1.285117 E_vdwl   =      -9.175997 
E_coul   =      22.800907 E_long   =     -26.195783 Press    =      70.890428
------------ Step           5800 ----- CPU =    0.8127573 (sec) -------------
TotEng   =     239.358202 KinEng   =      56.415059 Temp     =     156.413910 
PotEng   =     182.943143 E_bond   =      24.791945 E_angle  =     131.231525 
E_dihed  =      34.485385 E_impro  =       0.690878 E_vdwl   =      -4.751508 
E_coul   =      22.672603 E_long   =     -26.177685 Press    =    -599.017216
------------ Step           5900 ----- CPU =    0.8270673 (sec) -------------
TotEng   =     240.378109 KinEng   =      53.434887 Temp     =     148.151216 
PotEng   =     186.943222 E_bond   =      23.188401 E_angle  =     139.962188 
E_dihed  =      29.040284 E_impro  =       1.244777 E_vdwl   =      -3.168533 
E_coul   =      22.859162 E_long   =     -26.183056 Press    =     130.570013
------------ Step           6000 ----- CPU =    0.8415493 (sec) -------------
TotEng   =     247.195692 KinEng   =      53.396410 Temp     =     148.044536 
PotEng   =     193.799282 E_bond   =      22.421908 E_angle  =     150.425543 
E_dihed  =      27.969585 E_impro  =       1.365476 E_vdwl   =      -4.964128 
E_coul   =      22.760841 E_long   =     -26.179943 Press    =     424.949659
------------ Step           6100 ----- CPU =    0.8558581 (sec) -------------
TotEng   =     254.672049 KinEng   =      66.773711 Temp     =     185.133853 
PotEng   =     187.898338 E_bond   =      22.302144 E_angle  =     149.451398 
E_dihed  =      30.987969 E_impro  =       0.521639 E_vdwl   =     -11.801420 
E_coul   =      22.616040 E_long   =     -26.179432 Press    =    -316.319377
------------ Step           6200 ----- CPU =    0.8701006 (sec) -------------
TotEng   =     258.820724 KinEng   =      66.031119 Temp     =     183.074976 
PotEng   =     192.789605 E_bond   =      19.631941 E_angle  =     161.371817 
E_dihed  =      32.068204 E_impro  =       0.946547 E_vdwl   =     -17.959650 
E_coul   =      22.902955 E_long   =     -26.172209 Press    =    -227.495477
------------ Step           6300 ----- CPU =    0.8844623 (sec) -------------
TotEng   =     262.744896 KinEng   =      66.894031 Temp     =     185.467446 
PotEng   =     195.850866 E_bond   =      17.060930 E_angle  =     163.946932 
E_dihed  =      35.673292 E_impro  =       0.944926 E_vdwl   =     -18.480257 
E_coul   =      22.881428 E_long   =     -26.176385 Press    =     353.372973
------------ Step           6400 ----- CPU =    0.8993289 (sec) -------------
TotEng   =     266.192093 KinEng   =      76.440185 Temp     =     211.934694 
PotEng   =     189.751907 E_bond   =      21.121992 E_angle  =     152.756141 
E_dihed  =      39.582077 E_impro  =       1.041734 E_vdwl   =     -21.221947 
E_coul   =      22.666742 E_long   =     -26.194832 Press    =    -201.138786
------------ Step           6500 ----- CPU =    0.9128537 (sec) -------------
TotEng   =     266.035969 KinEng   =      81.737822 Temp     =     226.622689 
PotEng   =     184.298147 E_bond   =      23.887281 E_angle  =     148.041360 
E_dihed  =      33.870746 E_impro  =       0.974276 E_vdwl   =     -19.352729 
E_coul   =      23.053154 E_long   =     -26.175940 Press    =    -738.510223
------------ Step           6600 ----- CPU =    0.9272991 (sec) -------------
TotEng   =     260.931871 KinEng   =      77.812255 Temp     =     215.738835 
PotEng   =     183.119616 E_bond   =      22.375266 E_angle  =     148.323277 
E_dihed  =      29.624044 E_impro  =       1.060121 E_vdwl   =     -15.179173 
E_coul   =      23.082839 E_long   =     -26.166759 Press    =    -404.229693
------------ Step           6700 ----- CPU =    0.9417479 (sec) -------------
TotEng   =     253.698191 KinEng   =      71.198356 Temp     =     197.401429 
PotEng   =     182.499835 E_bond   =      18.667600 E_angle  =     143.719885 
E_dihed  =      33.314441 E_impro  =       0.587678 E_vdwl   =     -10.490662 
E_coul   =      22.870207 E_long   =     -26.169314 Press    =     674.960451
------------ Step           6800 ----- CPU =    0.9562748 (sec) -------------
TotEng   =     250.636925 KinEng   =      63.659590 Temp     =     176.499779 
PotEng   =     186.977334 E_bond   =      15.164941 E_angle  =     147.044158 
E_dihed  =      36.616895 E_impro  =       0.757718 E_vdwl   =      -9.478981 
E_coul   =      23.040448 E_long   =     -26.167844 Press    =    1359.706133
------------ Step           6900 ----- CPU =    0.9707911 (sec) -------------
TotEng   =     251.579369 KinEng   =      74.151531 Temp     =     205.589273 
PotEng   =     177.427838 E_bond   =      14.027729 E_angle  =     157.224501 
E_dihed  =      33.595584 E_impro  =       1.392464 E_vdwl   =     -26.062105 
E_coul   =      23.421593 E_long   =     -26.171929 Press    =     343.111750
------------ Step           7000 ----- CPU =    0.9856731 (sec) -------------
TotEng   =     253.260682 KinEng   =      79.175066 Temp     =     219.517306 
PotEng   =     174.085616 E_bond   =      18.567024 E_angle  =     142.571714 
E_dihed  =      38.833008 E_impro  =       1.663456 E_vdwl   =     -24.613289 
E_coul   =      23.234425 E_long   =     -26.170724 Press    =    -242.941695
------------ Step           7100 ----- CPU =    0.9998172 (sec) -------------
TotEng   =     255.325632 KinEng   =      70.038465 Temp     =     194.185568 
PotEng   =     185.287167 E_bond   =      18.427320 E_angle  =     144.611643 
E_dihed  =      48.890237 E_impro  =       1.410247 E_vdwl   =     -24.822747 
E_coul   =      22.937285 E_long   =     -26.166819 Press    =     195.772916
------------ Step           7200 ----- CPU =     1.015343 (sec) -------------
TotEng   =     261.320187 KinEng   =      69.464419 Temp     =     192.593993 
PotEng   =     191.855768 E_bond   =      14.453059 E_angle  =     167.477994 
E_dihed  =      43.106297 E_impro  =       3.308879 E_vdwl   =     -33.318475 
E_coul   =      22.994217 E_long   =     -26.166202 Press    =    -605.324868
------------ Step           7300 ----- CPU =     1.029871 (sec) -------------
TotEng   =     269.935526 KinEng   =      85.547721 Temp     =     237.185847 
PotEng   =     184.387805 E_bond   =      17.331242 E_angle  =     150.971698 
E_dihed  =      38.570360 E_impro  =       0.886389 E_vdwl   =     -20.616653 
E_coul   =      23.389780 E_long   =     -26.145012 Press    =    -469.869753
------------ Step           7400 ----- CPU =     1.044917 (sec) -------------
TotEng   =     272.686257 KinEng   =      82.156347 Temp     =     227.783073 
PotEng   =     190.529910 E_bond   =      16.296178 E_angle  =     151.786569 
E_dihed  =      48.418002 E_impro  =       1.678013 E_vdwl   =     -24.696440 
E_coul   =      23.203783 E_long   =     -26.156196 Press    =      86.186444
------------ Step           7500 ----- CPU =     1.059949 (sec) -------------
TotEng   =     273.274764 KinEng   =      85.560281 Temp     =     237.220672 
PotEng   =     187.714482 E_bond   =      15.174397 E_angle  =     154.687961 
E_dihed  =      43.474182 E_impro  =       0.964291 E_vdwl   =     -23.098183 
E_coul   =      22.672662 E_long   =     -26.160828 Press    =     720.378370
------------ Step           7600 ----- CPU =     1.075128 (sec) -------------
TotEng   =     272.410077 KinEng   =      78.680302 Temp     =     218.145545 
PotEng   =     193.729775 E_bond   =      19.303490 E_angle  =     150.258447 
E_dihed  =      40.723216 E_impro  =       1.002749 E_vdwl   =     -14.225356 
E_coul   =      22.842987 E_long   =     -26.175759 Press    =    1413.066576
------------ Step           7700 ----- CPU =     1.090349 (sec) -------------
TotEng   =     272.089399 KinEng   =      81.127099 Temp     =     224.929425 
PotEng   =     190.962300 E_bond   =      22.434299 E_angle  =     133.367220 
E_dihed  =      49.399192 E_impro  =       0.816530 E_vdwl   =     -11.881681 
E_coul   =      23.005837 E_long   =     -26.179098 Press    =     171.225931
------------ Step           7800 ----- CPU =     1.105654 (sec) -------------
TotEng   =     272.226958 KinEng   =      85.603114 Temp     =     237.339429 
PotEng   =     186.623844 E_bond   =      22.028470 E_angle  =     145.319345 
E_dihed  =      33.215830 E_impro  =       1.112634 E_vdwl   =     -11.513495 
E_coul   =      22.630427 E_long   =     -26.169367 Press    =     326.334732
------------ Step           7900 ----- CPU =     1.121032 (sec) -------------
TotEng   =     270.939434 KinEng   =      89.504250 Temp     =     248.155546 
PotEng   =     181.435184 E_bond   =      19.723470 E_angle  =     154.830784 
E_dihed  =      30.585283 E_impro  =       0.956304 E_vdwl   =     -20.838055 
E_coul   =      22.371187 E_long   =     -26.193789 Press    =     475.447357
------------ Step           8000 ----- CPU =     1.136765 (sec) -------------
TotEng   =     264.952797 KinEng   =      79.972110 Temp     =     221.727155 
PotEng   =     184.980687 E_bond   =      23.295217 E_angle  =     151.415910 
E_dihed  =      33.457276 E_impro  =       0.800452 E_vdwl   =     -20.118513 
E_coul   =      22.314428 E_long   =     -26.184083 Press    =    -729.862278
------------ Step           8100 ----- CPU =     1.152319 (sec) -------------
TotEng   =     261.425756 KinEng   =      66.127058 Temp     =     183.340971 
PotEng   =     195.298698 E_bond   =      22.994195 E_angle  =     170.830478 
E_dihed  =      27.892855 E_impro  =       0.997150 E_vdwl   =     -24.000524 
E_coul   =      22.757717 E_long   =     -26.173174 Press    =    -477.665670
------------ Step           8200 ----- CPU =     1.167979 (sec) -------------
TotEng   =     266.138408 KinEng   =      69.006140 Temp     =     191.323387 
PotEng   =     197.132269 E_bond   =      20.012164 E_angle  =     159.997374 
E_dihed  =      30.604160 E_impro  =       1.603776 E_vdwl   =     -11.867496 
E_coul   =      22.957993 E_long   =     -26.175702 Press    =      42.055457
------------ Step           8300 ----- CPU =     1.183776 (sec) -------------
TotEng   =     276.297177 KinEng   =      75.439806 Temp     =     209.161087 
PotEng   =     200.857371 E_bond   =      25.314039 E_angle  =     150.573225 
E_dihed  =      31.665948 E_impro  =       1.252855 E_vdwl   =      -4.740669 
E_coul   =      22.967795 E_long   =     -26.175821 Press    =    -519.672692
------------ Step           8400 ----- CPU =      1.19981 (sec) -------------
TotEng   =     283.398546 KinEng   =      74.558104 Temp     =     206.716519 
PotEng   =     208.840442 E_bond   =      20.680074 E_angle  =     171.418768 
E_dihed  =      35.933769 E_impro  =       1.632851 E_vdwl   =     -17.305554 
E_coul   =      22.689212 E_long   =     -26.208678 Press    =     192.633371
------------ Step           8500 ----- CPU =     1.215867 (sec) -------------
TotEng   =     292.244249 KinEng   =      95.746677 Temp     =     265.463024 
PotEng   =     196.497572 E_bond   =      28.398551 E_angle  =     159.485200 
E_dihed  =      33.175615 E_impro  =       1.287625 E_vdwl   =     -22.327262 
E_coul   =      22.660012 E_long   =     -26.182170 Press    =   -1544.955475
------------ Step           8600 ----- CPU =     1.232161 (sec) -------------
TotEng   =     298.938452 KinEng   =      95.211777 Temp     =     263.979983 
PotEng   =     203.726675 E_bond   =      26.452727 E_angle  =     169.429762 
E_dihed  =      38.030028 E_impro  =       1.271894 E_vdwl   =     -27.905888 
E_coul   =      22.616496 E_long   =     -26.168345 Press    =    -849.792022
------------ Step           8700 ----- CPU =     1.248727 (sec) -------------
TotEng   =     302.365931 KinEng   =      96.368348 Temp     =     267.186642 
PotEng   =     205.997583 E_bond   =      16.026047 E_angle  =     159.297895 
E_dihed  =      44.449252 E_impro  =       2.035207 E_vdwl   =     -12.021122 
E_coul   =      22.411344 E_long   =     -26.201040 Press    =    1300.844288
------------ Step           8800 ----- CPU =     1.265891 (sec) -------------
TotEng   =     303.158056 KinEng   =      91.305880 Temp     =     253.150666 
PotEng   =     211.852176 E_bond   =      23.218914 E_angle  =     169.258203 
E_dihed  =      46.646879 E_impro  =       1.457262 E_vdwl   =     -24.243427 
E_coul   =      21.723003 E_long   =     -26.208658 Press    =    -483.354946
------------ Step           8900 ----- CPU =     1.282643 (sec) -------------
TotEng   =     305.121811 KinEng   =     100.690355 Temp     =     279.169648 
PotEng   =     204.431456 E_bond   =      14.080199 E_angle  =     156.362259 
E_dihed  =      47.579483 E_impro  =       0.918872 E_vdwl   =     -10.461640 
E_coul   =      22.142363 E_long   =     -26.190079 Press    =    1627.528612
------------ Step           9000 ----- CPU =      1.29958 (sec) -------------
TotEng   =     307.261642 KinEng   =      94.366533 Temp     =     261.636498 
PotEng   =     212.895109 E_bond   =      29.080674 E_angle  =     156.551460 
E_dihed  =      41.745843 E_impro  =       2.045028 E_vdwl   =     -12.751332 
E_coul   =      22.414616 E_long   =     -26.191180 Press    =    -597.550498
------------ Step           9100 ----- CPU =      1.31578 (sec) -------------
TotEng   =     310.308992 KinEng   =     102.399322 Temp     =     283.907855 
PotEng   =     207.909670 E_bond   =      24.022053 E_angle  =     166.973858 
E_dihed  =      39.979578 E_impro  =       1.150266 E_vdwl   =     -20.316537 
E_coul   =      22.282304 E_long   =     -26.181852 Press    =     -76.168780
------------ Step           9200 ----- CPU =     1.332721 (sec) -------------
TotEng   =     313.387026 KinEng   =     109.321420 Temp     =     303.099761 
PotEng   =     204.065606 E_bond   =      21.739964 E_angle  =     166.619985 
E_dihed  =      42.842798 E_impro  =       1.106152 E_vdwl   =     -24.253932 
E_coul   =      22.207037 E_long   =     -26.196398 Press    =    -733.102943
------------ Step           9300 ----- CPU =     1.349725 (sec) -------------
TotEng   =     311.795582 KinEng   =     103.816381 Temp     =     287.836730 
PotEng   =     207.979202 E_bond   =      26.345332 E_angle  =     176.484781 
E_dihed  =      37.102731 E_impro  =       1.108055 E_vdwl   =     -29.177103 
E_coul   =      22.306708 E_long   =     -26.191302 Press    =    -563.679992
------------ Step           9400 ----- CPU =     1.366809 (sec) -------------
TotEng   =     304.948845 KinEng   =     104.839896 Temp     =     290.674483 
PotEng   =     200.108949 E_bond   =      21.938906 E_angle  =     166.889485 
E_dihed  =      34.750211 E_impro  =       2.409176 E_vdwl   =     -22.535058 
E_coul   =      22.865294 E_long   =     -26.209065 Press    =     107.219008
------------ Step           9500 ----- CPU =     1.383929 (sec) -------------
TotEng   =     296.942874 KinEng   =     100.150418 Temp     =     277.672644 
PotEng   =     196.792456 E_bond   =      17.160012 E_angle  =     166.084528 
E_dihed  =      42.282043 E_impro  =       1.785097 E_vdwl   =     -26.631985 
E_coul   =      22.317748 E_long   =     -26.204986 Press    =     -36.235285
------------ Step           9600 ----- CPU =     1.401654 (sec) -------------
TotEng   =     293.858400 KinEng   =     100.762040 Temp     =     279.368400 
PotEng   =     193.096360 E_bond   =      20.261682 E_angle  =     145.925637 
E_dihed  =      42.157425 E_impro  =       1.425661 E_vdwl   =     -12.894031 
E_coul   =      22.396194 E_long   =     -26.176208 Press    =     181.090790
------------ Step           9700 ----- CPU =     1.418021 (sec) -------------
TotEng   =     294.896361 KinEng   =      96.038950 Temp     =     266.273367 
PotEng   =     198.857411 E_bond   =      25.017762 E_angle  =     146.335985 
E_dihed  =      50.035667 E_impro  =       1.647258 E_vdwl   =     -20.620166 
E_coul   =      22.643632 E_long   =     -26.202728 Press    =    -896.600995
------------ Step           9800 ----- CPU =     1.435165 (sec) -------------
TotEng   =     300.679926 KinEng   =      97.250559 Temp     =     269.632622 
PotEng   =     203.429367 E_bond   =      21.460499 E_angle  =     146.763981 
E_dihed  =      50.160759 E_impro  =       0.934235 E_vdwl   =     -12.029626 
E_coul   =      22.362039 E_long   =     -26.222519 Press    =     247.620490
------------ Step           9900 ----- CPU =     1.453124 (sec) -------------
TotEng   =     309.853420 KinEng   =     114.121817 Temp     =     316.409129 
PotEng   =     195.731603 E_bond   =      21.405285 E_angle  =     161.837003 
E_dihed  =      42.987694 E_impro  =       1.212032 E_vdwl   =     -27.847684 
E_coul   =      22.360162 E_long   =     -26.222888 Press    =    -199.358031
------------ Step          10000 ----- CPU =     1.470483 (sec) -------------
TotEng   =     314.628218 KinEng   =     116.476502 Temp     =     322.937626 
PotEng   =     198.151715 E_bond   =      18.044804 E_angle  =     151.850417 
E_dihed  =      42.441423 E_impro  =       1.926491 E_vdwl   =     -12.141651 
E_coul   =      22.249449 E_long   =     -26.219217 Press    =     716.888707
Loop time of 1.4705 on 1 procs for 10000 steps with 122 atoms

Performance: 293.778 ns/day, 0.082 hours/ns, 6800.419 timesteps/s, 829.651 katom-step/s
99.7% CPU use with 1 MPI tasks x 1 OpenMP threads

MPI task timing breakdown:
Section |  min time  |  avg time  |  max time  |%varavg| %total
---------------------------------------------------------------
Pair    | 0.6521     | 0.6521     | 0.6521     |   0.0 | 44.35
Bond    | 0.30002    | 0.30002    | 0.30002    |   0.0 | 20.40
Kspace  | 0.39774    | 0.39774    | 0.39774    |   0.0 | 27.05
Neigh   | 0.04347    | 0.04347    | 0.04347    |   0.0 |  2.96
Comm    | 0.047351   | 0.047351   | 0.047351   |   0.0 |  3.22
Output  | 0.0035309  | 0.0035309  | 0.0035309  |   0.0 |  0.24
Modify  | 0.019868   | 0.019868   | 0.019868   |   0.0 |  1.35
Other   |            | 0.006412   |            |       |  0.44

Nlocal:            122 ave         122 max         122 min
Histogram: 1 0 0 0 0 0 0 0 0 0
Nghost:           1450 ave        1450 max        1450 min
Histogram: 1 0 0 0 0 0 0 0 0 0
Neighs:           7834 ave        7834 max        7834 min
Histogram: 1 0 0 0 0 0 0 0 0 0

Total # of neighbors = 7834
Ave neighs/atom = 64.213115
Ave special neighs/atom = 10.967213
Neighbor list builds = 82
Dangerous builds = 0
unfix                4
undump               1


#fix                  freeze oleic_acid setforce 0.0 0.0 0.0
fix                  1 all gcmc 10 0 100 0 1234567 300.0 0 1 mol 69 full_energy mcmoves 0 1 1
dump                 2 all custom 1 ${sname}.simple_mc.lammpstrj id type xu yu zu vx vy vz
dump                 2 all custom 1 simplified_mc.simple_mc.lammpstrj id type xu yu zu vx vy vz
run                  1000
WARNING: No fixes with time integration, atoms won't move (src/verlet.cpp:60)
PPPM initialization ...
  using 12-bit tables for long-range coulomb (src/kspace.cpp:342)
  G vector (1/distance) = 0.14809026
  grid = 3 3 3
  stencil order = 5
  estimated absolute RMS force accuracy = 0.031780157
  estimated relative force accuracy = 9.5704998e-05
  using double precision FFTW3
  3d grid and FFT values/proc = 512 27
Generated 28 of 28 mixed pair_coeff terms from geometric mixing rule
0 atoms in group FixGCMC:gcmc_exclusion_group:1
0 atoms in group FixGCMC:rotation_gas_atoms:1
WARNING: Fix gcmc is being applied to the default group all (src/MC/fix_gcmc.cpp:672)
WARNING: Neighbor exclusions used with KSpace solver may give inconsistent Coulombic energies (src/neighbor.cpp:639)
Per MPI rank memory allocation (min/avg/max) = 30.68 | 30.68 | 30.68 Mbytes
------------ Step          10000 ----- CPU =            0 (sec) -------------
TotEng   =     314.628218 KinEng   =     116.476502 Temp     =     322.937626 
PotEng   =     198.151715 E_bond   =      18.044804 E_angle  =     151.850417 
E_dihed  =      42.441423 E_impro  =       1.926491 E_vdwl   =     -12.141651 
E_coul   =      22.249449 E_long   =     -26.219217 Press    =     716.888707
------------ Step          10100 ----- CPU =     0.949518 (sec) -------------
TotEng   =     312.886332 KinEng   =     116.476502 Temp     =     322.937626 
PotEng   =     196.409830 E_bond   =      18.044804 E_angle  =     151.850417 
E_dihed  =      42.441423 E_impro  =       1.926491 E_vdwl   =     -14.181559 
E_coul   =      22.567283 E_long   =     -26.239028 Press    =     653.497886
------------ Step          10200 ----- CPU =      1.88494 (sec) -------------
TotEng   =     311.505625 KinEng   =     116.476502 Temp     =     322.937626 
PotEng   =     195.029123 E_bond   =      18.044804 E_angle  =     151.850417 
E_dihed  =      42.441423 E_impro  =       1.926491 E_vdwl   =     -15.409755 
E_coul   =      22.394023 E_long   =     -26.218280 Press    =     657.209100
------------ Step          10300 ----- CPU =     2.807609 (sec) -------------
TotEng   =     314.492558 KinEng   =     116.476502 Temp     =     322.937626 
PotEng   =     198.016056 E_bond   =      18.044804 E_angle  =     151.850417 
E_dihed  =      42.441423 E_impro  =       1.926491 E_vdwl   =     -12.603874 
E_coul   =      22.529776 E_long   =     -26.172981 Press    =     697.983295
------------ Step          10400 ----- CPU =     3.726017 (sec) -------------
TotEng   =     312.114893 KinEng   =     116.476502 Temp     =     322.937626 
PotEng   =     195.638391 E_bond   =      18.044804 E_angle  =     151.850417 
E_dihed  =      42.441423 E_impro  =       1.926491 E_vdwl   =     -14.761961 
E_coul   =      22.317907 E_long   =     -26.180689 Press    =     867.766240
------------ Step          10500 ----- CPU =     4.646165 (sec) -------------
TotEng   =     308.704448 KinEng   =     116.476502 Temp     =     322.937626 
PotEng   =     192.227945 E_bond   =      18.044804 E_angle  =     151.850417 
E_dihed  =      42.441423 E_impro  =       1.926491 E_vdwl   =     -18.160205 
E_coul   =      22.307327 E_long   =     -26.182312 Press    =     702.259242
------------ Step          10600 ----- CPU =     5.566217 (sec) -------------
TotEng   =     307.783059 KinEng   =     116.476502 Temp     =     322.937626 
PotEng   =     191.306557 E_bond   =      18.044804 E_angle  =     151.850417 
E_dihed  =      42.441423 E_impro  =       1.926491 E_vdwl   =     -19.271425 
E_coul   =      22.504943 E_long   =     -26.190097 Press    =     633.677193
------------ Step          10700 ----- CPU =     6.481759 (sec) -------------
TotEng   =     305.982790 KinEng   =     116.476502 Temp     =     322.937626 
PotEng   =     189.506288 E_bond   =      18.044804 E_angle  =     151.850417 
E_dihed  =      42.441423 E_impro  =       1.926491 E_vdwl   =     -20.953568 
E_coul   =      22.374754 E_long   =     -26.178033 Press    =     617.384978
------------ Step          10800 ----- CPU =     7.394337 (sec) -------------
TotEng   =     305.193255 KinEng   =     116.476502 Temp     =     322.937626 
PotEng   =     188.716753 E_bond   =      18.044804 E_angle  =     151.850417 
E_dihed  =      42.441423 E_impro  =       1.926491 E_vdwl   =     -21.693250 
E_coul   =      22.323915 E_long   =     -26.177047 Press    =     651.425960
------------ Step          10900 ----- CPU =     8.300447 (sec) -------------
TotEng   =     306.890296 KinEng   =     116.476502 Temp     =     322.937626 
PotEng   =     190.413794 E_bond   =      18.044804 E_angle  =     151.850417 
E_dihed  =      42.441423 E_impro  =       1.926491 E_vdwl   =     -20.244589 
E_coul   =      22.569087 E_long   =     -26.173839 Press    =     703.476485
------------ Step          11000 ----- CPU =     9.194593 (sec) -------------
TotEng   =     305.579475 KinEng   =     116.476502 Temp     =     322.937626 
PotEng   =     189.102973 E_bond   =      18.044804 E_angle  =     151.850417 
E_dihed  =      42.441423 E_impro  =       1.926491 E_vdwl   =     -21.243177 
E_coul   =      22.233329 E_long   =     -26.150313 Press    =     630.329733
Loop time of 9.19461 on 1 procs for 1000 steps with 122 atoms

Performance: 4.698 ns/day, 5.108 hours/ns, 108.759 timesteps/s, 13.269 katom-step/s
99.6% CPU use with 1 MPI tasks x 1 OpenMP threads

MPI task timing breakdown:
Section |  min time  |  avg time  |  max time  |%varavg| %total
---------------------------------------------------------------
Pair    | 0.096368   | 0.096368   | 0.096368   |   0.0 |  1.05
Bond    | 0.030449   | 0.030449   | 0.030449   |   0.0 |  0.33
Kspace  | 0.040178   | 0.040178   | 0.040178   |   0.0 |  0.44
Neigh   | 0.060604   | 0.060604   | 0.060604   |   0.0 |  0.66
Comm    | 0.0058839  | 0.0058839  | 0.0058839  |   0.0 |  0.06
Output  | 0.21468    | 0.21468    | 0.21468    |   0.0 |  2.33
Modify  | 8.7456     | 8.7456     | 8.7456     |   0.0 | 95.12
Other   |            | 0.0008374  |            |       |  0.01

Nlocal:            122 ave         122 max         122 min
Histogram: 1 0 0 0 0 0 0 0 0 0
Nghost:           1120 ave        1120 max        1120 min
Histogram: 1 0 0 0 0 0 0 0 0 0
Neighs:           7606 ave        7606 max        7606 min
Histogram: 1 0 0 0 0 0 0 0 0 0

Total # of neighbors = 7606
Ave neighs/atom = 62.344262
Ave special neighs/atom = 10.967213
Neighbor list builds = 10200
Dangerous builds = 0
unfix                1
undump               2
Total wall time: 0:00:10
