LAMMPS (8 Feb 2023)
OMP_NUM_THREADS environment is not set. Defaulting to 1 thread. (src/comm.cpp:98)
  using 1 OpenMP thread(s) per MPI task
# define variables

variable       spacing index 10.0
variable       lbox index 20.0
variable       sname string simplified_mc
variable       rtemp index 300


#package omp 4

units           real
atom_style      full
boundary        p p p
#pair_style      lj/cut/coul/long  14
pair_style      lj/charmm/coul/long/opt 9 10.00000
#pair_modify     mix arithmetic tail yes
#special_bonds   lj/coul 0.0 0.0 1.0
#kspace_style    ewald 0.0001
bond_style      harmonic
angle_style     harmonic
dihedral_style  harmonic
improper_style  umbrella
kspace_style    pppm 0.0001

# initialize a simple cumbic box for the initial structure

lattice        sc ${spacing}
lattice        sc 10.0
Lattice spacing in x,y,z = 10 10 10
region         mybox block 0 ${lbox} 0 ${lbox} 0 ${lbox} units box
region         mybox block 0 20.0 0 ${lbox} 0 ${lbox} units box
region         mybox block 0 20.0 0 20.0 0 ${lbox} units box
region         mybox block 0 20.0 0 20.0 0 20.0 units box
create_box     8 mybox                bond/types 13                angle/types 5                dihedral/types 11                improper/types 1                extra/bond/per/atom 13                extra/angle/per/atom 10                extra/dihedral/per/atom 20                extra/improper/per/atom 20                extra/special/per/atom 100
Created orthogonal box = (0 0 0) to (20 20 20)
  1 by 1 by 1 MPI processor grid

molecule       69 xlig.lammps.txt
Read molecule template 69:
  1 molecules
  0 fragments
  68 atoms with max type 7
  70 bonds with max type 10
  128 angles with max type 4
  188 dihedrals with max type 11
  39 impropers with max type 1
molecule       420 oleic.lammps.txt
Read molecule template 420:
  1 molecules
  0 fragments
  54 atoms with max type 6
  53 bonds with max type 13
  100 angles with max type 5
  141 dihedrals with max type 9
  9 impropers with max type 1


pair_modify          mix geometric
#neighbor             2.0 multi
#neigh_modify         every 2 delay 4 check yes
thermo_style         multi
thermo_modify        line multi format float %14.6f flush yes



# originally used box instead of single, which takes no args and auto populates the box until full
create_atoms   0 single 10 10 10   mol 69 42 units box
Created 68 atoms
  using box units in orthogonal box = (0 0 0) to (20 20 20)
  create_atoms CPU = 0.001 seconds
create_atoms   0 single 0 0 0  mol 420 42 units box
Created 54 atoms
  using box units in orthogonal box = (0 0 0) to (20 20 20)
  create_atoms CPU = 0.000 seconds


group xligand molecule == 69
0 atoms in group xligand
#group xligand id 1:68
#group xligand include molecule

group oleic_acid molecule == 420
0 atoms in group oleic_acid
#group oleic_acid id 69:122
#group oleic_acid include molecule



# coeffs
# Masses

mass    1 1.2011E+01 # C_3
mass    2 1.4007E+01 # N_3
mass    3 1.2011E+01 # C_R
mass    4 1.5999E+01 # O_2
mass    5 3.2060E+01 # S_3
mass    6 1.0080E+00 # H_
mass    7 1.0080E+00 # H___A
mass    8 1.5999E+01 # O_R


pair_coeff           1 1 0.09510000 3.47299041 # C_3 C_3
pair_coeff           2 2 0.07740000 3.26256026 # N_3 N_3
pair_coeff           3 3 0.09510000 3.47299041 # C_R C_R
pair_coeff           4 4 0.09570000 3.03315369 # O_2 O_2
pair_coeff           5 5 0.34400001 3.59032202 # S_3 S_3
pair_coeff           6 6 0.01520000 2.84642134 # H_ H_
pair_coeff           7 7 0.01520000 2.84642134 # H___A H___A
pair_coeff           8 8 0.09570000 3.03315369 # O_R O_R


pair_modify          mix geometric
neighbor             2.0 multi
neigh_modify         every 2 delay 4 check yes
thermo_style         multi
WARNING: New thermo_style command, previous thermo_modify settings will be lost (src/output.cpp:896)
thermo_modify        line multi format float %14.6f flush yes

bond_coeff           1 350 1.53000 # C_3 C_3
bond_coeff           2 350 1.09000 # C_3 H_
bond_coeff           3 350 1.46200 # N_3 C_3
bond_coeff           4 350 1.39200 # N_3 C_R
bond_coeff           5 525 1.39000 # C_R C_R
bond_coeff           6 350 1.02000 # C_R H_
bond_coeff           7 700 1.25000 # O_2 C_R
bond_coeff           8 350 1.73000 # S_3 C_R
bond_coeff           9 350 1.80000 # S_3 C_3
bond_coeff           10 350 1.36000 # S_3 H___A
bond_coeff           11 525 1.35000 # O_R C_R
bond_coeff           12 350 0.98000 # O_R H___A
bond_coeff           13 350 1.46000 # C_R C_3


angle_coeff          1 50 109.47100 # X C_3 X
angle_coeff          2 50 106.70000 # X N_3 X
angle_coeff          3 50 120 # X C_R X
angle_coeff          4 50 92.10000 # X S_3 X
angle_coeff          5 50 120 # X O_R X


dihedral_coeff       1 0.08333 -1 6 # C_R C_R C_3 X
dihedral_coeff       2 0.08333 -1 6 # O_2 C_R C_3 X
dihedral_coeff       3 0.08333 -1 6 # O_R C_R C_3 X
dihedral_coeff       4 0.11111 1 3 # X C_3 C_3 X
dihedral_coeff       5 0.16667 1 3 # X C_R C_3 X
dihedral_coeff       6 3.12500 -1 2 # X C_R C_R X
dihedral_coeff       7 0.16667 1 3 # X N_3 C_3 X
dihedral_coeff       8 0.12500 -1 6 # X N_3 C_R C_R
dihedral_coeff       9 6.25000 -1 2 # X O_R C_R X
dihedral_coeff       10 0.33333 1 3 # X S_3 C_3 X
dihedral_coeff       11 0.50000 -1 2 # X S_3 C_R X

improper_coeff       1 13.33333 0 # C_R X X X

timestep             0.5

print                .
.
print                ==========================================
==========================================
print                "500 steps CG Minimization"
500 steps CG Minimization
print                ==========================================
==========================================
print                .
.

dump                 1 all custom 25 ${sname}.min.lammpstrj id type xu yu zu vx vy vz
dump                 1 all custom 25 simplified_mc.min.lammpstrj id type xu yu zu vx vy vz
thermo               10
min_style            cg
minimize             1.0e-4 1.0e-4 500 5000

CITE-CITE-CITE-CITE-CITE-CITE-CITE-CITE-CITE-CITE-CITE-CITE-CITE

Your simulation uses code contributions which should be cited:

- neighbor multi command: doi:10.1016/j.cpc.2008.03.005, doi:10.1007/s40571-020-00361-2

@Article{Intveld08,
 author =  {in 't Veld, P. J. and S. J.~Plimpton and G. S. Grest},
 title =   {Accurate and Efficient Methods for Modeling Colloidal
            Mixtures in an Explicit Solvent using Molecular Dynamics},
 journal = {Comput.\ Phys.\ Commut.},
 year =    2008,
 volume =  179,
 pages =   {320--329}
}

@article{Shire2020,
 author = {Shire, Tom and Hanley, Kevin J. and Stratford, Kevin},
 title = {{DEM} Simulations of Polydisperse Media: Efficient Contact
          Detection Applied to Investigate the Quasi-Static Limit},
 journal = {Computational Particle Mechanics},
 year = {2020}
}

CITE-CITE-CITE-CITE-CITE-CITE-CITE-CITE-CITE-CITE-CITE-CITE-CITE

Switching to 'neigh_modify every 1 delay 0 check yes' setting during minimization
PPPM initialization ...
WARNING: System is not charge neutral, net charge = -0.0006 (src/kspace.cpp:327)
  using 12-bit tables for long-range coulomb (src/kspace.cpp:342)
  G vector (1/distance) = 0.14809026
  grid = 3 3 3
  stencil order = 5
  estimated absolute RMS force accuracy = 0.031780157
  estimated relative force accuracy = 9.5704998e-05
  using double precision FFTW3
  3d grid and FFT values/proc = 512 27
Generated 28 of 28 mixed pair_coeff terms from geometric mixing rule
Neighbor list info ...
  update: every = 1 steps, delay = 0 steps, check = yes
  max neighbors/atom: 2000, page size: 100000
  master list distance cutoff = 12
  ghost atom cutoff = 12
  binsize = 6, bins = 4 4 4
  1 neighbor lists, perpetual/occasional/extra = 1 0 0
  (1) pair lj/charmm/coul/long/opt, perpetual
      attributes: half, newton on
      pair build: half/multi/newton
      stencil: half/multi/3d
      bin: multi
Per MPI rank memory allocation (min/avg/max) = 31.79 | 31.79 | 31.79 Mbytes
------------ Step              0 ----- CPU =            0 (sec) -------------
TotEng   =   47704.531398 KinEng   =       0.000000 Temp     =       0.000000 
PotEng   =   47704.531398 E_bond   =     110.088059 E_angle  =      36.601372 
E_dihed  =      19.805602 E_impro  =       3.329327 E_vdwl   =   47535.850125 
E_coul   =      24.998785 E_long   =     -26.141872 Press    = 1638373.071719
------------ Step             10 ----- CPU =  0.002530951 (sec) -------------
TotEng   =     597.919516 KinEng   =       0.000000 Temp     =       0.000000 
PotEng   =     597.919516 E_bond   =      29.092403 E_angle  =     169.454584 
E_dihed  =      21.557370 E_impro  =       0.961529 E_vdwl   =     378.488320 
E_coul   =      24.477600 E_long   =     -26.112289 Press    =   19084.374650
------------ Step             20 ----- CPU =  0.006191242 (sec) -------------
TotEng   =     251.396861 KinEng   =       0.000000 Temp     =       0.000000 
PotEng   =     251.396861 E_bond   =      35.486760 E_angle  =     124.681428 
E_dihed  =      28.320316 E_impro  =       0.442898 E_vdwl   =      64.429754 
E_coul   =      24.144610 E_long   =     -26.108906 Press    =    2737.929194
------------ Step             30 ----- CPU =   0.01158367 (sec) -------------
TotEng   =     227.510758 KinEng   =       0.000000 Temp     =       0.000000 
PotEng   =     227.510758 E_bond   =      39.577244 E_angle  =     129.257624 
E_dihed  =      30.448878 E_impro  =       0.382553 E_vdwl   =      29.787384 
E_coul   =      24.171751 E_long   =     -26.114676 Press    =     323.128047
------------ Step             40 ----- CPU =   0.01538689 (sec) -------------
TotEng   =     221.202066 KinEng   =       0.000000 Temp     =       0.000000 
PotEng   =     221.202066 E_bond   =      34.449712 E_angle  =     129.073060 
E_dihed  =      30.985233 E_impro  =       0.486444 E_vdwl   =      28.217652 
E_coul   =      24.114003 E_long   =     -26.124038 Press    =     324.947277
------------ Step             50 ----- CPU =   0.01933355 (sec) -------------
TotEng   =     216.984425 KinEng   =       0.000000 Temp     =       0.000000 
PotEng   =     216.984425 E_bond   =      33.867042 E_angle  =     124.137549 
E_dihed  =      31.078109 E_impro  =       0.644359 E_vdwl   =      29.434645 
E_coul   =      23.958120 E_long   =     -26.135399 Press    =     393.026681
------------ Step             60 ----- CPU =   0.02371449 (sec) -------------
TotEng   =     212.376312 KinEng   =       0.000000 Temp     =       0.000000 
PotEng   =     212.376312 E_bond   =      32.941824 E_angle  =     125.713100 
E_dihed  =      31.963390 E_impro  =       0.640466 E_vdwl   =      23.375100 
E_coul   =      23.887585 E_long   =     -26.145153 Press    =      12.192140
------------ Step             70 ----- CPU =   0.02753381 (sec) -------------
TotEng   =     210.388893 KinEng   =       0.000000 Temp     =       0.000000 
PotEng   =     210.388893 E_bond   =      31.695075 E_angle  =     125.601752 
E_dihed  =      32.816769 E_impro  =       0.503935 E_vdwl   =      22.047261 
E_coul   =      23.870763 E_long   =     -26.146662 Press    =       0.953718
------------ Step             80 ----- CPU =   0.03151896 (sec) -------------
TotEng   =     209.037808 KinEng   =       0.000000 Temp     =       0.000000 
PotEng   =     209.037808 E_bond   =      30.765731 E_angle  =     124.674160 
E_dihed  =      32.306652 E_impro  =       0.411739 E_vdwl   =      23.240006 
E_coul   =      23.783403 E_long   =     -26.143883 Press    =      33.862889
------------ Step             90 ----- CPU =   0.03530401 (sec) -------------
TotEng   =     207.436790 KinEng   =       0.000000 Temp     =       0.000000 
PotEng   =     207.436790 E_bond   =      31.224543 E_angle  =     123.482883 
E_dihed  =      31.372589 E_impro  =       0.516818 E_vdwl   =      23.317991 
E_coul   =      23.659404 E_long   =     -26.137439 Press    =    -164.622776
------------ Step            100 ----- CPU =   0.03987944 (sec) -------------
TotEng   =     206.144958 KinEng   =       0.000000 Temp     =       0.000000 
PotEng   =     206.144958 E_bond   =      31.527668 E_angle  =     124.278802 
E_dihed  =      30.526361 E_impro  =       0.589951 E_vdwl   =      21.593880 
E_coul   =      23.758817 E_long   =     -26.130521 Press    =    -305.502730
------------ Step            110 ----- CPU =   0.04371956 (sec) -------------
TotEng   =     205.068733 KinEng   =       0.000000 Temp     =       0.000000 
PotEng   =     205.068733 E_bond   =      31.300823 E_angle  =     123.411420 
E_dihed  =      29.609459 E_impro  =       0.556986 E_vdwl   =      22.549602 
E_coul   =      23.766706 E_long   =     -26.126264 Press    =    -207.332943
------------ Step            120 ----- CPU =   0.04752185 (sec) -------------
TotEng   =     204.337625 KinEng   =       0.000000 Temp     =       0.000000 
PotEng   =     204.337625 E_bond   =      30.995371 E_angle  =     123.622079 
E_dihed  =      28.601288 E_impro  =       0.552708 E_vdwl   =      22.938222 
E_coul   =      23.754323 E_long   =     -26.126367 Press    =     -90.006912
------------ Step            130 ----- CPU =   0.05152017 (sec) -------------
TotEng   =     203.712835 KinEng   =       0.000000 Temp     =       0.000000 
PotEng   =     203.712835 E_bond   =      30.946840 E_angle  =     124.576712 
E_dihed  =      28.038090 E_impro  =       0.551832 E_vdwl   =      22.006554 
E_coul   =      23.721287 E_long   =     -26.128478 Press    =    -102.761174
------------ Step            140 ----- CPU =    0.0553263 (sec) -------------
TotEng   =     203.076027 KinEng   =       0.000000 Temp     =       0.000000 
PotEng   =     203.076027 E_bond   =      31.058000 E_angle  =     125.232856 
E_dihed  =      27.734492 E_impro  =       0.596107 E_vdwl   =      20.880324 
E_coul   =      23.705077 E_long   =     -26.130830 Press    =    -113.296397
------------ Step            150 ----- CPU =   0.05930104 (sec) -------------
TotEng   =     202.448068 KinEng   =       0.000000 Temp     =       0.000000 
PotEng   =     202.448068 E_bond   =      30.765917 E_angle  =     125.625472 
E_dihed  =      26.856765 E_impro  =       0.559692 E_vdwl   =      21.094028 
E_coul   =      23.678588 E_long   =     -26.132394 Press    =     -50.091860
------------ Step            160 ----- CPU =   0.06363281 (sec) -------------
TotEng   =     201.532614 KinEng   =       0.000000 Temp     =       0.000000 
PotEng   =     201.532614 E_bond   =      30.832273 E_angle  =     126.625680 
E_dihed  =      25.289638 E_impro  =       0.583810 E_vdwl   =      20.732425 
E_coul   =      23.599013 E_long   =     -26.130225 Press    =     -70.819276
------------ Step            170 ----- CPU =   0.06745233 (sec) -------------
TotEng   =     200.844254 KinEng   =       0.000000 Temp     =       0.000000 
PotEng   =     200.844254 E_bond   =      31.575068 E_angle  =     128.899701 
E_dihed  =      24.434173 E_impro  =       0.544531 E_vdwl   =      17.961108 
E_coul   =      23.557376 E_long   =     -26.127705 Press    =    -302.190899
------------ Step            180 ----- CPU =   0.07143454 (sec) -------------
TotEng   =     200.389736 KinEng   =       0.000000 Temp     =       0.000000 
PotEng   =     200.389736 E_bond   =      31.270712 E_angle  =     129.039978 
E_dihed  =      24.318035 E_impro  =       0.536117 E_vdwl   =      17.831860 
E_coul   =      23.520631 E_long   =     -26.127597 Press    =    -303.459784
------------ Step            188 ----- CPU =   0.07483974 (sec) -------------
TotEng   =     200.016302 KinEng   =       0.000000 Temp     =       0.000000 
PotEng   =     200.016302 E_bond   =      31.129215 E_angle  =     128.151704 
E_dihed  =      24.369723 E_impro  =       0.493734 E_vdwl   =      18.607637 
E_coul   =      23.392618 E_long   =     -26.128328 Press    =    -244.611825
Loop time of 0.0748677 on 1 procs for 188 steps with 122 atoms

97.5% CPU use with 1 MPI tasks x 1 OpenMP threads

Minimization stats:
  Stopping criterion = energy tolerance
  Energy initial, next-to-last, final = 
      47704.5313982105     200.0313189902   200.016301751765
  Force two-norm initial, final = 806464.23 7.9368788
  Force max component initial, final = 496010.83 2.4948871
  Final line search alpha, max atom move = 0.0072625632 0.018119275
  Iterations, force evaluations = 188 365

MPI task timing breakdown:
Section |  min time  |  avg time  |  max time  |%varavg| %total
---------------------------------------------------------------
Pair    | 0.040273   | 0.040273   | 0.040273   |   0.0 | 53.79
Bond    | 0.01353    | 0.01353    | 0.01353    |   0.0 | 18.07
Kspace  | 0.01455    | 0.01455    | 0.01455    |   0.0 | 19.43
Neigh   | 0.0019885  | 0.0019885  | 0.0019885  |   0.0 |  2.66
Comm    | 0.0016931  | 0.0016931  | 0.0016931  |   0.0 |  2.26
Output  | 0.0015483  | 0.0015483  | 0.0015483  |   0.0 |  2.07
Modify  | 0          | 0          | 0          |   0.0 |  0.00
Other   |            | 0.001284   |            |       |  1.72

Nlocal:            122 ave         122 max         122 min
Histogram: 1 0 0 0 0 0 0 0 0 0
Nghost:           1243 ave        1243 max        1243 min
Histogram: 1 0 0 0 0 0 0 0 0 0
Neighs:           6227 ave        6227 max        6227 min
Histogram: 1 0 0 0 0 0 0 0 0 0

Total # of neighbors = 6227
Ave neighs/atom = 51.040984
Ave special neighs/atom = 10.967213
Neighbor list builds = 4
Dangerous builds = 0
min_style            sd
minimize             1.0e-4 1.0e-4 500 5000
Switching to 'neigh_modify every 1 delay 0 check yes' setting during minimization
PPPM initialization ...
  using 12-bit tables for long-range coulomb (src/kspace.cpp:342)
  G vector (1/distance) = 0.14809026
  grid = 3 3 3
  stencil order = 5
  estimated absolute RMS force accuracy = 0.031780157
  estimated relative force accuracy = 9.5704998e-05
  using double precision FFTW3
  3d grid and FFT values/proc = 512 27
Generated 28 of 28 mixed pair_coeff terms from geometric mixing rule
Per MPI rank memory allocation (min/avg/max) = 31.79 | 31.79 | 31.79 Mbytes
------------ Step            188 ----- CPU =            0 (sec) -------------
TotEng   =     200.016302 KinEng   =       0.000000 Temp     =       0.000000 
PotEng   =     200.016302 E_bond   =      31.129215 E_angle  =     128.151704 
E_dihed  =      24.369723 E_impro  =       0.493734 E_vdwl   =      18.607637 
E_coul   =      23.392618 E_long   =     -26.128328 Press    =    -244.611825
------------ Step            189 ----- CPU =  0.000795944 (sec) -------------
TotEng   =     200.003072 KinEng   =       0.000000 Temp     =       0.000000 
PotEng   =     200.003072 E_bond   =      31.114368 E_angle  =     128.172010 
E_dihed  =      24.372752 E_impro  =       0.491815 E_vdwl   =      18.588556 
E_coul   =      23.391986 E_long   =     -26.128414 Press    =    -238.604737
Loop time of 0.000823275 on 1 procs for 1 steps with 122 atoms

96.4% CPU use with 1 MPI tasks x 1 OpenMP threads

Minimization stats:
  Stopping criterion = energy tolerance
  Energy initial, next-to-last, final = 
      200.016301751765   200.016301751765   200.003071556374
  Force two-norm initial, final = 7.9368788 3.81103
  Force max component initial, final = 2.4948871 0.90752967
  Final line search alpha, max atom move = 0.040081973 0.03637558
  Iterations, force evaluations = 1 2

MPI task timing breakdown:
Section |  min time  |  avg time  |  max time  |%varavg| %total
---------------------------------------------------------------
Pair    | 0.00035967 | 0.00035967 | 0.00035967 |   0.0 | 43.69
Bond    | 0.00010409 | 0.00010409 | 0.00010409 |   0.0 | 12.64
Kspace  | 0.00012004 | 0.00012004 | 0.00012004 |   0.0 | 14.58
Neigh   | 0          | 0          | 0          |   0.0 |  0.00
Comm    | 1.3213e-05 | 1.3213e-05 | 1.3213e-05 |   0.0 |  1.60
Output  | 0          | 0          | 0          |   0.0 |  0.00
Modify  | 0          | 0          | 0          |   0.0 |  0.00
Other   |            | 0.0002263  |            |       | 27.48

Nlocal:            122 ave         122 max         122 min
Histogram: 1 0 0 0 0 0 0 0 0 0
Nghost:           1239 ave        1239 max        1239 min
Histogram: 1 0 0 0 0 0 0 0 0 0
Neighs:           6211 ave        6211 max        6211 min
Histogram: 1 0 0 0 0 0 0 0 0 0

Total # of neighbors = 6211
Ave neighs/atom = 50.909836
Ave special neighs/atom = 10.967213
Neighbor list builds = 0
Dangerous builds = 0
#now                 minimize the entire system
minimize             1.0e-4 1.0e-4 500 5000
Switching to 'neigh_modify every 1 delay 0 check yes' setting during minimization
PPPM initialization ...
  using 12-bit tables for long-range coulomb (src/kspace.cpp:342)
  G vector (1/distance) = 0.14809026
  grid = 3 3 3
  stencil order = 5
  estimated absolute RMS force accuracy = 0.031780157
  estimated relative force accuracy = 9.5704998e-05
  using double precision FFTW3
  3d grid and FFT values/proc = 512 27
Generated 28 of 28 mixed pair_coeff terms from geometric mixing rule
Per MPI rank memory allocation (min/avg/max) = 31.79 | 31.79 | 31.79 Mbytes
------------ Step            189 ----- CPU =            0 (sec) -------------
TotEng   =     200.003072 KinEng   =       0.000000 Temp     =       0.000000 
PotEng   =     200.003072 E_bond   =      31.114368 E_angle  =     128.172010 
E_dihed  =      24.372752 E_impro  =       0.491815 E_vdwl   =      18.588556 
E_coul   =      23.391986 E_long   =     -26.128414 Press    =    -238.604737
------------ Step            190 ----- CPU =  0.000793259 (sec) -------------
TotEng   =     199.999419 KinEng   =       0.000000 Temp     =       0.000000 
PotEng   =     199.999419 E_bond   =      31.085559 E_angle  =     128.210009 
E_dihed  =      24.378618 E_impro  =       0.491077 E_vdwl   =      18.567555 
E_coul   =      23.394978 E_long   =     -26.128377 Press    =    -236.984364
Loop time of 0.000820119 on 1 procs for 1 steps with 122 atoms

98.0% CPU use with 1 MPI tasks x 1 OpenMP threads

Minimization stats:
  Stopping criterion = energy tolerance
  Energy initial, next-to-last, final = 
      200.003071556374   200.003071556374   199.999418856088
  Force two-norm initial, final = 3.81103 5.2339648
  Force max component initial, final = 0.90752967 1.7096814
  Final line search alpha, max atom move = 0.11018924 0.18838849
  Iterations, force evaluations = 1 2

MPI task timing breakdown:
Section |  min time  |  avg time  |  max time  |%varavg| %total
---------------------------------------------------------------
Pair    | 0.00036011 | 0.00036011 | 0.00036011 |   0.0 | 43.91
Bond    | 0.00011123 | 0.00011123 | 0.00011123 |   0.0 | 13.56
Kspace  | 0.00012376 | 0.00012376 | 0.00012376 |   0.0 | 15.09
Neigh   | 0          | 0          | 0          |   0.0 |  0.00
Comm    | 1.3186e-05 | 1.3186e-05 | 1.3186e-05 |   0.0 |  1.61
Output  | 0          | 0          | 0          |   0.0 |  0.00
Modify  | 0          | 0          | 0          |   0.0 |  0.00
Other   |            | 0.0002118  |            |       | 25.83

Nlocal:            122 ave         122 max         122 min
Histogram: 1 0 0 0 0 0 0 0 0 0
Nghost:           1239 ave        1239 max        1239 min
Histogram: 1 0 0 0 0 0 0 0 0 0
Neighs:           6211 ave        6211 max        6211 min
Histogram: 1 0 0 0 0 0 0 0 0 0

Total # of neighbors = 6211
Ave neighs/atom = 50.909836
Ave special neighs/atom = 10.967213
Neighbor list builds = 0
Dangerous builds = 0
undump               1


fix                  freeze oleic_acid setforce 0.0 0.0 0.0
fix                  1 all gcmc 10 0 100 0 1234567 300.0 0 5 mol 69 full_energy mcmoves 0 1 1
dump                 2 all custom 10 ${sname}.simple_mc.lammpstrj id type xu yu zu vx vy vz
dump                 2 all custom 10 simplified_mc.simple_mc.lammpstrj id type xu yu zu vx vy vz
run                  10000
WARNING: No fixes with time integration, atoms won't move (src/verlet.cpp:60)
PPPM initialization ...
  using 12-bit tables for long-range coulomb (src/kspace.cpp:342)
  G vector (1/distance) = 0.14809026
  grid = 3 3 3
  stencil order = 5
  estimated absolute RMS force accuracy = 0.031780157
  estimated relative force accuracy = 9.5704998e-05
  using double precision FFTW3
  3d grid and FFT values/proc = 512 27
Generated 28 of 28 mixed pair_coeff terms from geometric mixing rule
0 atoms in group FixGCMC:gcmc_exclusion_group:1
0 atoms in group FixGCMC:rotation_gas_atoms:1
WARNING: Fix gcmc is being applied to the default group all (src/MC/fix_gcmc.cpp:672)
WARNING: Neighbor exclusions used with KSpace solver may give inconsistent Coulombic energies (src/neighbor.cpp:639)
Per MPI rank memory allocation (min/avg/max) = 30.66 | 30.66 | 30.66 Mbytes
------------ Step            190 ----- CPU =            0 (sec) -------------
TotEng   =     199.999419 KinEng   =       0.000000 Temp     =       0.000000 
PotEng   =     199.999419 E_bond   =      31.085559 E_angle  =     128.210009 
E_dihed  =      24.378618 E_impro  =       0.491077 E_vdwl   =      18.567555 
E_coul   =      23.394978 E_long   =     -26.128377 Press    =    -236.984364
------------ Step            200 ----- CPU =   0.08696545 (sec) -------------
TotEng   =     194.174116 KinEng   =       0.000000 Temp     =       0.000000 
PotEng   =     194.174116 E_bond   =      31.085559 E_angle  =     128.210009 
E_dihed  =      24.378618 E_impro  =       0.491077 E_vdwl   =      12.807345 
E_coul   =      23.304100 E_long   =     -26.102591 Press    =    -308.333603
------------ Step            210 ----- CPU =    0.1745322 (sec) -------------
TotEng   =     195.939828 KinEng   =       0.000000 Temp     =       0.000000 
PotEng   =     195.939828 E_bond   =      31.085559 E_angle  =     128.210009 
E_dihed  =      24.378618 E_impro  =       0.491077 E_vdwl   =      14.559135 
E_coul   =      23.299357 E_long   =     -26.083927 Press    =    -296.017186
------------ Step            220 ----- CPU =    0.2619286 (sec) -------------
TotEng   =     191.728148 KinEng   =       0.000000 Temp     =       0.000000 
PotEng   =     191.728148 E_bond   =      31.085559 E_angle  =     128.210009 
E_dihed  =      24.378618 E_impro  =       0.491077 E_vdwl   =      10.519620 
E_coul   =      23.134614 E_long   =     -26.091349 Press    =    -265.285782
------------ Step            230 ----- CPU =    0.3490947 (sec) -------------
TotEng   =     191.185064 KinEng   =       0.000000 Temp     =       0.000000 
PotEng   =     191.185064 E_bond   =      31.085559 E_angle  =     128.210009 
E_dihed  =      24.378618 E_impro  =       0.491077 E_vdwl   =      10.203202 
E_coul   =      22.901851 E_long   =     -26.085252 Press    =    -149.276262
------------ Step            240 ----- CPU =    0.4359294 (sec) -------------
TotEng   =     190.564648 KinEng   =       0.000000 Temp     =       0.000000 
PotEng   =     190.564648 E_bond   =      31.085559 E_angle  =     128.210009 
E_dihed  =      24.378618 E_impro  =       0.491077 E_vdwl   =       9.689262 
E_coul   =      22.775283 E_long   =     -26.065159 Press    =    -282.753504
------------ Step            250 ----- CPU =    0.5222023 (sec) -------------
TotEng   =     191.532680 KinEng   =       0.000000 Temp     =       0.000000 
PotEng   =     191.532680 E_bond   =      31.085559 E_angle  =     128.210009 
E_dihed  =      24.378618 E_impro  =       0.491077 E_vdwl   =      10.701311 
E_coul   =      22.742897 E_long   =     -26.076790 Press    =    -277.643097
------------ Step            260 ----- CPU =    0.6089381 (sec) -------------
TotEng   =     191.807473 KinEng   =       0.000000 Temp     =       0.000000 
PotEng   =     191.807473 E_bond   =      31.085559 E_angle  =     128.210009 
E_dihed  =      24.378618 E_impro  =       0.491077 E_vdwl   =      10.913522 
E_coul   =      22.813200 E_long   =     -26.084511 Press    =    -248.700838
------------ Step            270 ----- CPU =    0.6958825 (sec) -------------
TotEng   =     191.909176 KinEng   =       0.000000 Temp     =       0.000000 
PotEng   =     191.909176 E_bond   =      31.085559 E_angle  =     128.210009 
E_dihed  =      24.378618 E_impro  =       0.491077 E_vdwl   =      10.900295 
E_coul   =      22.929960 E_long   =     -26.086342 Press    =    -205.407077
------------ Step            280 ----- CPU =    0.7824109 (sec) -------------
TotEng   =     191.311111 KinEng   =       0.000000 Temp     =       0.000000 
PotEng   =     191.311111 E_bond   =      31.085559 E_angle  =     128.210009 
E_dihed  =      24.378618 E_impro  =       0.491077 E_vdwl   =      10.446951 
E_coul   =      22.782628 E_long   =     -26.083730 Press    =    -234.711459
------------ Step            290 ----- CPU =     0.868999 (sec) -------------
TotEng   =     191.499249 KinEng   =       0.000000 Temp     =       0.000000 
PotEng   =     191.499249 E_bond   =      31.085559 E_angle  =     128.210009 
E_dihed  =      24.378618 E_impro  =       0.491077 E_vdwl   =      10.622666 
E_coul   =      22.795798 E_long   =     -26.084477 Press    =    -203.375302
------------ Step            300 ----- CPU =    0.9558721 (sec) -------------
TotEng   =     191.188697 KinEng   =       0.000000 Temp     =       0.000000 
PotEng   =     191.188697 E_bond   =      31.085559 E_angle  =     128.210009 
E_dihed  =      24.378618 E_impro  =       0.491077 E_vdwl   =      10.298651 
E_coul   =      22.806019 E_long   =     -26.081235 Press    =    -278.547121
------------ Step            310 ----- CPU =      1.04196 (sec) -------------
TotEng   =     192.922475 KinEng   =       0.000000 Temp     =       0.000000 
PotEng   =     192.922475 E_bond   =      31.085559 E_angle  =     128.210009 
E_dihed  =      24.378618 E_impro  =       0.491077 E_vdwl   =      11.845035 
E_coul   =      22.991437 E_long   =     -26.079258 Press    =    -298.056050
------------ Step            320 ----- CPU =     1.128119 (sec) -------------
TotEng   =     192.390430 KinEng   =       0.000000 Temp     =       0.000000 
PotEng   =     192.390430 E_bond   =      31.085559 E_angle  =     128.210009 
E_dihed  =      24.378618 E_impro  =       0.491077 E_vdwl   =      11.248809 
E_coul   =      23.054382 E_long   =     -26.078023 Press    =    -300.053833
------------ Step            330 ----- CPU =      1.21444 (sec) -------------
TotEng   =     190.922451 KinEng   =       0.000000 Temp     =       0.000000 
PotEng   =     190.922451 E_bond   =      31.085559 E_angle  =     128.210009 
E_dihed  =      24.378618 E_impro  =       0.491077 E_vdwl   =      10.049512 
E_coul   =      22.784563 E_long   =     -26.076887 Press    =    -298.300292
------------ Step            340 ----- CPU =     1.301126 (sec) -------------
TotEng   =     190.995538 KinEng   =       0.000000 Temp     =       0.000000 
PotEng   =     190.995538 E_bond   =      31.085559 E_angle  =     128.210009 
E_dihed  =      24.378618 E_impro  =       0.491077 E_vdwl   =       9.987890 
E_coul   =      22.931350 E_long   =     -26.088964 Press    =    -302.302471
------------ Step            350 ----- CPU =     1.387832 (sec) -------------
TotEng   =     191.001920 KinEng   =       0.000000 Temp     =       0.000000 
PotEng   =     191.001920 E_bond   =      31.085559 E_angle  =     128.210009 
E_dihed  =      24.378618 E_impro  =       0.491077 E_vdwl   =      10.227972 
E_coul   =      22.696926 E_long   =     -26.088240 Press    =    -145.990078
------------ Step            360 ----- CPU =     1.474503 (sec) -------------
TotEng   =     191.082926 KinEng   =       0.000000 Temp     =       0.000000 
PotEng   =     191.082926 E_bond   =      31.085559 E_angle  =     128.210009 
E_dihed  =      24.378618 E_impro  =       0.491077 E_vdwl   =      10.472347 
E_coul   =      22.542879 E_long   =     -26.097562 Press    =    -201.061743
------------ Step            370 ----- CPU =     1.561433 (sec) -------------
TotEng   =     191.278814 KinEng   =       0.000000 Temp     =       0.000000 
PotEng   =     191.278814 E_bond   =      31.085559 E_angle  =     128.210009 
E_dihed  =      24.378618 E_impro  =       0.491077 E_vdwl   =      10.571798 
E_coul   =      22.642939 E_long   =     -26.101185 Press    =    -163.477619
------------ Step            380 ----- CPU =     1.648287 (sec) -------------
TotEng   =     191.042754 KinEng   =       0.000000 Temp     =       0.000000 
PotEng   =     191.042754 E_bond   =      31.085559 E_angle  =     128.210009 
E_dihed  =      24.378618 E_impro  =       0.491077 E_vdwl   =      10.312848 
E_coul   =      22.665046 E_long   =     -26.100402 Press    =    -190.333981
------------ Step            390 ----- CPU =     1.734855 (sec) -------------
TotEng   =     191.124976 KinEng   =       0.000000 Temp     =       0.000000 
PotEng   =     191.124976 E_bond   =      31.085559 E_angle  =     128.210009 
E_dihed  =      24.378618 E_impro  =       0.491077 E_vdwl   =      10.186531 
E_coul   =      22.873736 E_long   =     -26.100553 Press    =    -282.239817
------------ Step            400 ----- CPU =     1.821657 (sec) -------------
TotEng   =     191.604516 KinEng   =       0.000000 Temp     =       0.000000 
PotEng   =     191.604516 E_bond   =      31.085559 E_angle  =     128.210009 
E_dihed  =      24.378618 E_impro  =       0.491077 E_vdwl   =      10.642404 
E_coul   =      22.892622 E_long   =     -26.095771 Press    =    -302.072059
------------ Step            410 ----- CPU =     1.909054 (sec) -------------
TotEng   =     192.383474 KinEng   =       0.000000 Temp     =       0.000000 
PotEng   =     192.383474 E_bond   =      31.085559 E_angle  =     128.210009 
E_dihed  =      24.378618 E_impro  =       0.491077 E_vdwl   =      11.621182 
E_coul   =      22.695369 E_long   =     -26.098339 Press    =     -98.363769
------------ Step            420 ----- CPU =     1.997146 (sec) -------------
TotEng   =     192.394303 KinEng   =       0.000000 Temp     =       0.000000 
PotEng   =     192.394303 E_bond   =      31.085559 E_angle  =     128.210009 
E_dihed  =      24.378618 E_impro  =       0.491077 E_vdwl   =      11.219618 
E_coul   =      23.100247 E_long   =     -26.090823 Press    =    -208.390657
------------ Step            430 ----- CPU =      2.08516 (sec) -------------
TotEng   =     191.770214 KinEng   =       0.000000 Temp     =       0.000000 
PotEng   =     191.770214 E_bond   =      31.085559 E_angle  =     128.210009 
E_dihed  =      24.378618 E_impro  =       0.491077 E_vdwl   =      10.725622 
E_coul   =      22.983463 E_long   =     -26.104134 Press    =    -294.378021
------------ Step            440 ----- CPU =     2.172713 (sec) -------------
TotEng   =     191.195453 KinEng   =       0.000000 Temp     =       0.000000 
PotEng   =     191.195453 E_bond   =      31.085559 E_angle  =     128.210009 
E_dihed  =      24.378618 E_impro  =       0.491077 E_vdwl   =      10.430848 
E_coul   =      22.696269 E_long   =     -26.096926 Press    =    -248.314780
------------ Step            450 ----- CPU =     2.259052 (sec) -------------
TotEng   =     192.197593 KinEng   =       0.000000 Temp     =       0.000000 
PotEng   =     192.197593 E_bond   =      31.085559 E_angle  =     128.210009 
E_dihed  =      24.378618 E_impro  =       0.491077 E_vdwl   =      11.337946 
E_coul   =      22.802307 E_long   =     -26.107921 Press    =    -271.435236
------------ Step            460 ----- CPU =     2.345734 (sec) -------------
TotEng   =     192.692265 KinEng   =       0.000000 Temp     =       0.000000 
PotEng   =     192.692265 E_bond   =      31.085559 E_angle  =     128.210009 
E_dihed  =      24.378618 E_impro  =       0.491077 E_vdwl   =      11.537067 
E_coul   =      23.106330 E_long   =     -26.116394 Press    =    -243.306201
------------ Step            470 ----- CPU =     2.432657 (sec) -------------
TotEng   =     191.310057 KinEng   =       0.000000 Temp     =       0.000000 
PotEng   =     191.310057 E_bond   =      31.085559 E_angle  =     128.210009 
E_dihed  =      24.378618 E_impro  =       0.491077 E_vdwl   =      10.222176 
E_coul   =      23.038125 E_long   =     -26.115505 Press    =    -280.497547
------------ Step            480 ----- CPU =     2.519578 (sec) -------------
TotEng   =     191.952919 KinEng   =       0.000000 Temp     =       0.000000 
PotEng   =     191.952919 E_bond   =      31.085559 E_angle  =     128.210009 
E_dihed  =      24.378618 E_impro  =       0.491077 E_vdwl   =      10.661963 
E_coul   =      23.244225 E_long   =     -26.118531 Press    =    -240.733370
------------ Step            490 ----- CPU =     2.607198 (sec) -------------
TotEng   =     192.520187 KinEng   =       0.000000 Temp     =       0.000000 
PotEng   =     192.520187 E_bond   =      31.085559 E_angle  =     128.210009 
E_dihed  =      24.378618 E_impro  =       0.491077 E_vdwl   =      11.603145 
E_coul   =      22.880351 E_long   =     -26.128571 Press    =    -276.642366
------------ Step            500 ----- CPU =     2.694829 (sec) -------------
TotEng   =     189.888391 KinEng   =       0.000000 Temp     =       0.000000 
PotEng   =     189.888391 E_bond   =      31.085559 E_angle  =     128.210009 
E_dihed  =      24.378618 E_impro  =       0.491077 E_vdwl   =       8.880782 
E_coul   =      22.985082 E_long   =     -26.142735 Press    =    -265.985945
------------ Step            510 ----- CPU =     2.782328 (sec) -------------
TotEng   =     190.058925 KinEng   =       0.000000 Temp     =       0.000000 
PotEng   =     190.058925 E_bond   =      31.085559 E_angle  =     128.210009 
E_dihed  =      24.378618 E_impro  =       0.491077 E_vdwl   =       9.058161 
E_coul   =      22.981174 E_long   =     -26.145672 Press    =    -236.779303
------------ Step            520 ----- CPU =     2.869599 (sec) -------------
TotEng   =     190.739009 KinEng   =       0.000000 Temp     =       0.000000 
PotEng   =     190.739009 E_bond   =      31.085559 E_angle  =     128.210009 
E_dihed  =      24.378618 E_impro  =       0.491077 E_vdwl   =       9.538117 
E_coul   =      23.180233 E_long   =     -26.144603 Press    =    -255.231594
------------ Step            530 ----- CPU =     2.957482 (sec) -------------
TotEng   =     192.350341 KinEng   =       0.000000 Temp     =       0.000000 
PotEng   =     192.350341 E_bond   =      31.085559 E_angle  =     128.210009 
E_dihed  =      24.378618 E_impro  =       0.491077 E_vdwl   =      11.312143 
E_coul   =      23.008041 E_long   =     -26.135104 Press    =    -317.554591
------------ Step            540 ----- CPU =     3.045578 (sec) -------------
TotEng   =     191.604287 KinEng   =       0.000000 Temp     =       0.000000 
PotEng   =     191.604287 E_bond   =      31.085559 E_angle  =     128.210009 
E_dihed  =      24.378618 E_impro  =       0.491077 E_vdwl   =      10.655282 
E_coul   =      22.915555 E_long   =     -26.131811 Press    =    -312.199107
------------ Step            550 ----- CPU =     3.133254 (sec) -------------
TotEng   =     189.750563 KinEng   =       0.000000 Temp     =       0.000000 
PotEng   =     189.750563 E_bond   =      31.085559 E_angle  =     128.210009 
E_dihed  =      24.378618 E_impro  =       0.491077 E_vdwl   =       8.956374 
E_coul   =      22.768680 E_long   =     -26.139754 Press    =    -244.396928
------------ Step            560 ----- CPU =       3.2207 (sec) -------------
TotEng   =     189.688808 KinEng   =       0.000000 Temp     =       0.000000 
PotEng   =     189.688808 E_bond   =      31.085559 E_angle  =     128.210009 
E_dihed  =      24.378618 E_impro  =       0.491077 E_vdwl   =       8.607444 
E_coul   =      23.059594 E_long   =     -26.143492 Press    =    -256.712363
------------ Step            570 ----- CPU =     3.307995 (sec) -------------
TotEng   =     189.204704 KinEng   =       0.000000 Temp     =       0.000000 
PotEng   =     189.204704 E_bond   =      31.085559 E_angle  =     128.210009 
E_dihed  =      24.378618 E_impro  =       0.491077 E_vdwl   =       8.200323 
E_coul   =      22.983938 E_long   =     -26.144819 Press    =    -225.629203
------------ Step            580 ----- CPU =     3.395283 (sec) -------------
TotEng   =     189.871491 KinEng   =       0.000000 Temp     =       0.000000 
PotEng   =     189.871491 E_bond   =      31.085559 E_angle  =     128.210009 
E_dihed  =      24.378618 E_impro  =       0.491077 E_vdwl   =       8.390385 
E_coul   =      23.468752 E_long   =     -26.152909 Press    =    -192.811731
------------ Step            590 ----- CPU =     3.482699 (sec) -------------
TotEng   =     190.616501 KinEng   =       0.000000 Temp     =       0.000000 
PotEng   =     190.616501 E_bond   =      31.085559 E_angle  =     128.210009 
E_dihed  =      24.378618 E_impro  =       0.491077 E_vdwl   =       9.502325 
E_coul   =      23.089307 E_long   =     -26.140393 Press    =    -305.063913
------------ Step            600 ----- CPU =     3.570522 (sec) -------------
TotEng   =     191.494241 KinEng   =       0.000000 Temp     =       0.000000 
PotEng   =     191.494241 E_bond   =      31.085559 E_angle  =     128.210009 
E_dihed  =      24.378618 E_impro  =       0.491077 E_vdwl   =       9.954211 
E_coul   =      23.511516 E_long   =     -26.136747 Press    =    -212.899258
------------ Step            610 ----- CPU =     3.658293 (sec) -------------
TotEng   =     190.132958 KinEng   =       0.000000 Temp     =       0.000000 
PotEng   =     190.132958 E_bond   =      31.085559 E_angle  =     128.210009 
E_dihed  =      24.378618 E_impro  =       0.491077 E_vdwl   =       8.751578 
E_coul   =      23.343514 E_long   =     -26.127396 Press    =    -201.766314
------------ Step            620 ----- CPU =     3.746422 (sec) -------------
TotEng   =     192.511111 KinEng   =       0.000000 Temp     =       0.000000 
PotEng   =     192.511111 E_bond   =      31.085559 E_angle  =     128.210009 
E_dihed  =      24.378618 E_impro  =       0.491077 E_vdwl   =      11.083760 
E_coul   =      23.386976 E_long   =     -26.124887 Press    =    -249.096618
------------ Step            630 ----- CPU =      3.83393 (sec) -------------
TotEng   =     191.317958 KinEng   =       0.000000 Temp     =       0.000000 
PotEng   =     191.317958 E_bond   =      31.085559 E_angle  =     128.210009 
E_dihed  =      24.378618 E_impro  =       0.491077 E_vdwl   =       9.971090 
E_coul   =      23.309483 E_long   =     -26.127877 Press    =    -213.185033
------------ Step            640 ----- CPU =     3.921667 (sec) -------------
TotEng   =     189.846476 KinEng   =       0.000000 Temp     =       0.000000 
PotEng   =     189.846476 E_bond   =      31.085559 E_angle  =     128.210009 
E_dihed  =      24.378618 E_impro  =       0.491077 E_vdwl   =       8.504490 
E_coul   =      23.306759 E_long   =     -26.130035 Press    =    -297.770526
------------ Step            650 ----- CPU =     4.009563 (sec) -------------
TotEng   =     190.328250 KinEng   =       0.000000 Temp     =       0.000000 
PotEng   =     190.328250 E_bond   =      31.085559 E_angle  =     128.210009 
E_dihed  =      24.378618 E_impro  =       0.491077 E_vdwl   =       9.013073 
E_coul   =      23.271671 E_long   =     -26.121756 Press    =    -219.738172
------------ Step            660 ----- CPU =     4.097716 (sec) -------------
TotEng   =     189.932813 KinEng   =       0.000000 Temp     =       0.000000 
PotEng   =     189.932813 E_bond   =      31.085559 E_angle  =     128.210009 
E_dihed  =      24.378618 E_impro  =       0.491077 E_vdwl   =       8.551888 
E_coul   =      23.349870 E_long   =     -26.134207 Press    =    -249.800462
------------ Step            670 ----- CPU =     4.185651 (sec) -------------
TotEng   =     189.569359 KinEng   =       0.000000 Temp     =       0.000000 
PotEng   =     189.569359 E_bond   =      31.085559 E_angle  =     128.210009 
E_dihed  =      24.378618 E_impro  =       0.491077 E_vdwl   =       8.161866 
E_coul   =      23.384161 E_long   =     -26.141930 Press    =    -256.418120
------------ Step            680 ----- CPU =     4.273607 (sec) -------------
TotEng   =     190.866273 KinEng   =       0.000000 Temp     =       0.000000 
PotEng   =     190.866273 E_bond   =      31.085559 E_angle  =     128.210009 
E_dihed  =      24.378618 E_impro  =       0.491077 E_vdwl   =       9.736298 
E_coul   =      23.104946 E_long   =     -26.140233 Press    =    -313.429916
------------ Step            690 ----- CPU =     4.361336 (sec) -------------
TotEng   =     191.424716 KinEng   =       0.000000 Temp     =       0.000000 
PotEng   =     191.424716 E_bond   =      31.085559 E_angle  =     128.210009 
E_dihed  =      24.378618 E_impro  =       0.491077 E_vdwl   =      10.041786 
E_coul   =      23.348438 E_long   =     -26.130770 Press    =    -324.630537
------------ Step            700 ----- CPU =     4.449022 (sec) -------------
TotEng   =     191.618580 KinEng   =       0.000000 Temp     =       0.000000 
PotEng   =     191.618580 E_bond   =      31.085559 E_angle  =     128.210009 
E_dihed  =      24.378618 E_impro  =       0.491077 E_vdwl   =      10.239844 
E_coul   =      23.352622 E_long   =     -26.139149 Press    =    -233.505209
------------ Step            710 ----- CPU =     4.536877 (sec) -------------
TotEng   =     193.034477 KinEng   =       0.000000 Temp     =       0.000000 
PotEng   =     193.034477 E_bond   =      31.085559 E_angle  =     128.210009 
E_dihed  =      24.378618 E_impro  =       0.491077 E_vdwl   =      11.712822 
E_coul   =      23.291254 E_long   =     -26.134862 Press    =    -309.538177
------------ Step            720 ----- CPU =      4.62541 (sec) -------------
TotEng   =     190.318302 KinEng   =       0.000000 Temp     =       0.000000 
PotEng   =     190.318302 E_bond   =      31.085559 E_angle  =     128.210009 
E_dihed  =      24.378618 E_impro  =       0.491077 E_vdwl   =       8.952656 
E_coul   =      23.348088 E_long   =     -26.147704 Press    =    -203.034564
------------ Step            730 ----- CPU =     4.713314 (sec) -------------
TotEng   =     190.060364 KinEng   =       0.000000 Temp     =       0.000000 
PotEng   =     190.060364 E_bond   =      31.085559 E_angle  =     128.210009 
E_dihed  =      24.378618 E_impro  =       0.491077 E_vdwl   =       8.731244 
E_coul   =      23.314849 E_long   =     -26.150991 Press    =    -315.529376
------------ Step            740 ----- CPU =     4.801614 (sec) -------------
TotEng   =     189.994583 KinEng   =       0.000000 Temp     =       0.000000 
PotEng   =     189.994583 E_bond   =      31.085559 E_angle  =     128.210009 
E_dihed  =      24.378618 E_impro  =       0.491077 E_vdwl   =       8.563757 
E_coul   =      23.414459 E_long   =     -26.148895 Press    =    -314.563674
------------ Step            750 ----- CPU =     4.890208 (sec) -------------
TotEng   =     189.853109 KinEng   =       0.000000 Temp     =       0.000000 
PotEng   =     189.853109 E_bond   =      31.085559 E_angle  =     128.210009 
E_dihed  =      24.378618 E_impro  =       0.491077 E_vdwl   =       8.450016 
E_coul   =      23.389755 E_long   =     -26.151923 Press    =    -269.006463
------------ Step            760 ----- CPU =     4.978256 (sec) -------------
TotEng   =     190.910638 KinEng   =       0.000000 Temp     =       0.000000 
PotEng   =     190.910638 E_bond   =      31.085559 E_angle  =     128.210009 
E_dihed  =      24.378618 E_impro  =       0.491077 E_vdwl   =       9.432949 
E_coul   =      23.467254 E_long   =     -26.154827 Press    =    -164.008702
------------ Step            770 ----- CPU =     5.065929 (sec) -------------
TotEng   =     189.009997 KinEng   =       0.000000 Temp     =       0.000000 
PotEng   =     189.009997 E_bond   =      31.085559 E_angle  =     128.210009 
E_dihed  =      24.378618 E_impro  =       0.491077 E_vdwl   =       7.483329 
E_coul   =      23.519251 E_long   =     -26.157846 Press    =    -278.043823
------------ Step            780 ----- CPU =     5.153613 (sec) -------------
TotEng   =     190.388913 KinEng   =       0.000000 Temp     =       0.000000 
PotEng   =     190.388913 E_bond   =      31.085559 E_angle  =     128.210009 
E_dihed  =      24.378618 E_impro  =       0.491077 E_vdwl   =       8.884058 
E_coul   =      23.498845 E_long   =     -26.159252 Press    =    -281.344729
------------ Step            790 ----- CPU =     5.241405 (sec) -------------
TotEng   =     189.238681 KinEng   =       0.000000 Temp     =       0.000000 
PotEng   =     189.238681 E_bond   =      31.085559 E_angle  =     128.210009 
E_dihed  =      24.378618 E_impro  =       0.491077 E_vdwl   =       7.816288 
E_coul   =      23.416040 E_long   =     -26.158910 Press    =    -254.940001
------------ Step            800 ----- CPU =      5.32866 (sec) -------------
TotEng   =     190.220771 KinEng   =       0.000000 Temp     =       0.000000 
PotEng   =     190.220771 E_bond   =      31.085559 E_angle  =     128.210009 
E_dihed  =      24.378618 E_impro  =       0.491077 E_vdwl   =       8.824349 
E_coul   =      23.385239 E_long   =     -26.154079 Press    =    -187.928547
------------ Step            810 ----- CPU =     5.416115 (sec) -------------
TotEng   =     190.764356 KinEng   =       0.000000 Temp     =       0.000000 
PotEng   =     190.764356 E_bond   =      31.085559 E_angle  =     128.210009 
E_dihed  =      24.378618 E_impro  =       0.491077 E_vdwl   =       9.342818 
E_coul   =      23.397752 E_long   =     -26.141476 Press    =    -273.862027
------------ Step            820 ----- CPU =     5.503041 (sec) -------------
TotEng   =     190.726988 KinEng   =       0.000000 Temp     =       0.000000 
PotEng   =     190.726988 E_bond   =      31.085559 E_angle  =     128.210009 
E_dihed  =      24.378618 E_impro  =       0.491077 E_vdwl   =       9.273896 
E_coul   =      23.428985 E_long   =     -26.141155 Press    =    -245.612165
------------ Step            830 ----- CPU =     5.590386 (sec) -------------
TotEng   =     190.313733 KinEng   =       0.000000 Temp     =       0.000000 
PotEng   =     190.313733 E_bond   =      31.085559 E_angle  =     128.210009 
E_dihed  =      24.378618 E_impro  =       0.491077 E_vdwl   =       8.820892 
E_coul   =      23.472143 E_long   =     -26.144564 Press    =    -246.661649
------------ Step            840 ----- CPU =     5.677783 (sec) -------------
TotEng   =     190.510582 KinEng   =       0.000000 Temp     =       0.000000 
PotEng   =     190.510582 E_bond   =      31.085559 E_angle  =     128.210009 
E_dihed  =      24.378618 E_impro  =       0.491077 E_vdwl   =       9.079392 
E_coul   =      23.409911 E_long   =     -26.143983 Press    =    -307.473421
------------ Step            850 ----- CPU =     5.765147 (sec) -------------
TotEng   =     189.992579 KinEng   =       0.000000 Temp     =       0.000000 
PotEng   =     189.992579 E_bond   =      31.085559 E_angle  =     128.210009 
E_dihed  =      24.378618 E_impro  =       0.491077 E_vdwl   =       8.587865 
E_coul   =      23.382394 E_long   =     -26.142943 Press    =    -281.157582
------------ Step            860 ----- CPU =     5.852503 (sec) -------------
TotEng   =     191.252242 KinEng   =       0.000000 Temp     =       0.000000 
PotEng   =     191.252242 E_bond   =      31.085559 E_angle  =     128.210009 
E_dihed  =      24.378618 E_impro  =       0.491077 E_vdwl   =       9.664324 
E_coul   =      23.565420 E_long   =     -26.142764 Press    =    -195.527162
------------ Step            870 ----- CPU =     5.940035 (sec) -------------
TotEng   =     191.340597 KinEng   =       0.000000 Temp     =       0.000000 
PotEng   =     191.340597 E_bond   =      31.085559 E_angle  =     128.210009 
E_dihed  =      24.378618 E_impro  =       0.491077 E_vdwl   =       9.818201 
E_coul   =      23.493117 E_long   =     -26.135984 Press    =    -245.514964
------------ Step            880 ----- CPU =     6.028226 (sec) -------------
TotEng   =     189.992607 KinEng   =       0.000000 Temp     =       0.000000 
PotEng   =     189.992607 E_bond   =      31.085559 E_angle  =     128.210009 
E_dihed  =      24.378618 E_impro  =       0.491077 E_vdwl   =       8.490798 
E_coul   =      23.475407 E_long   =     -26.138861 Press    =    -252.712154
------------ Step            890 ----- CPU =     6.116513 (sec) -------------
TotEng   =     187.439804 KinEng   =       0.000000 Temp     =       0.000000 
PotEng   =     187.439804 E_bond   =      31.085559 E_angle  =     128.210009 
E_dihed  =      24.378618 E_impro  =       0.491077 E_vdwl   =       6.048130 
E_coul   =      23.358878 E_long   =     -26.132467 Press    =    -331.823980
------------ Step            900 ----- CPU =     6.204796 (sec) -------------
TotEng   =     187.366659 KinEng   =       0.000000 Temp     =       0.000000 
PotEng   =     187.366659 E_bond   =      31.085559 E_angle  =     128.210009 
E_dihed  =      24.378618 E_impro  =       0.491077 E_vdwl   =       5.945125 
E_coul   =      23.390848 E_long   =     -26.134576 Press    =    -341.402454
------------ Step            910 ----- CPU =     6.292905 (sec) -------------
TotEng   =     187.753530 KinEng   =       0.000000 Temp     =       0.000000 
PotEng   =     187.753530 E_bond   =      31.085559 E_angle  =     128.210009 
E_dihed  =      24.378618 E_impro  =       0.491077 E_vdwl   =       6.324076 
E_coul   =      23.384200 E_long   =     -26.120009 Press    =    -275.041670
------------ Step            920 ----- CPU =     6.381181 (sec) -------------
TotEng   =     187.601510 KinEng   =       0.000000 Temp     =       0.000000 
PotEng   =     187.601510 E_bond   =      31.085559 E_angle  =     128.210009 
E_dihed  =      24.378618 E_impro  =       0.491077 E_vdwl   =       6.120458 
E_coul   =      23.463850 E_long   =     -26.148060 Press    =    -320.791526
------------ Step            930 ----- CPU =      6.46946 (sec) -------------
TotEng   =     187.593262 KinEng   =       0.000000 Temp     =       0.000000 
PotEng   =     187.593262 E_bond   =      31.085559 E_angle  =     128.210009 
E_dihed  =      24.378618 E_impro  =       0.491077 E_vdwl   =       5.932218 
E_coul   =      23.641958 E_long   =     -26.146175 Press    =    -269.536457
------------ Step            940 ----- CPU =     6.557974 (sec) -------------
TotEng   =     186.761089 KinEng   =       0.000000 Temp     =       0.000000 
PotEng   =     186.761089 E_bond   =      31.085559 E_angle  =     128.210009 
E_dihed  =      24.378618 E_impro  =       0.491077 E_vdwl   =       4.951104 
E_coul   =      23.796753 E_long   =     -26.152029 Press    =    -242.438562
------------ Step            950 ----- CPU =     6.646386 (sec) -------------
TotEng   =     183.194709 KinEng   =       0.000000 Temp     =       0.000000 
PotEng   =     183.194709 E_bond   =      31.085559 E_angle  =     128.210009 
E_dihed  =      24.378618 E_impro  =       0.491077 E_vdwl   =       1.198782 
E_coul   =      23.970056 E_long   =     -26.139392 Press    =    -366.035505
------------ Step            960 ----- CPU =     6.735457 (sec) -------------
TotEng   =     184.164957 KinEng   =       0.000000 Temp     =       0.000000 
PotEng   =     184.164957 E_bond   =      31.085559 E_angle  =     128.210009 
E_dihed  =      24.378618 E_impro  =       0.491077 E_vdwl   =       2.049997 
E_coul   =      24.084646 E_long   =     -26.134948 Press    =    -244.431723
------------ Step            970 ----- CPU =     6.824766 (sec) -------------
TotEng   =     183.348164 KinEng   =       0.000000 Temp     =       0.000000 
PotEng   =     183.348164 E_bond   =      31.085559 E_angle  =     128.210009 
E_dihed  =      24.378618 E_impro  =       0.491077 E_vdwl   =       1.328909 
E_coul   =      23.992359 E_long   =     -26.138366 Press    =    -337.176249
------------ Step            980 ----- CPU =     6.914037 (sec) -------------
TotEng   =     182.848435 KinEng   =       0.000000 Temp     =       0.000000 
PotEng   =     182.848435 E_bond   =      31.085559 E_angle  =     128.210009 
E_dihed  =      24.378618 E_impro  =       0.491077 E_vdwl   =       0.914016 
E_coul   =      23.908813 E_long   =     -26.139657 Press    =    -309.561649
------------ Step            990 ----- CPU =     7.003468 (sec) -------------
TotEng   =     185.689573 KinEng   =       0.000000 Temp     =       0.000000 
PotEng   =     185.689573 E_bond   =      31.085559 E_angle  =     128.210009 
E_dihed  =      24.378618 E_impro  =       0.491077 E_vdwl   =       3.984077 
E_coul   =      23.677652 E_long   =     -26.137418 Press    =    -277.787239
------------ Step           1000 ----- CPU =     7.092882 (sec) -------------
TotEng   =     184.751721 KinEng   =       0.000000 Temp     =       0.000000 
PotEng   =     184.751721 E_bond   =      31.085559 E_angle  =     128.210009 
E_dihed  =      24.378618 E_impro  =       0.491077 E_vdwl   =       3.050306 
E_coul   =      23.675546 E_long   =     -26.139394 Press    =    -266.997946
------------ Step           1010 ----- CPU =     7.182028 (sec) -------------
TotEng   =     184.535183 KinEng   =       0.000000 Temp     =       0.000000 
PotEng   =     184.535183 E_bond   =      31.085559 E_angle  =     128.210009 
E_dihed  =      24.378618 E_impro  =       0.491077 E_vdwl   =       2.905906 
E_coul   =      23.615691 E_long   =     -26.151676 Press    =    -236.008046
------------ Step           1020 ----- CPU =     7.269108 (sec) -------------
TotEng   =     185.708360 KinEng   =       0.000000 Temp     =       0.000000 
PotEng   =     185.708360 E_bond   =      31.085559 E_angle  =     128.210009 
E_dihed  =      24.378618 E_impro  =       0.491077 E_vdwl   =       4.309015 
E_coul   =      23.379820 E_long   =     -26.145737 Press    =    -280.879153
------------ Step           1030 ----- CPU =     7.355436 (sec) -------------
TotEng   =     185.490700 KinEng   =       0.000000 Temp     =       0.000000 
PotEng   =     185.490700 E_bond   =      31.085559 E_angle  =     128.210009 
E_dihed  =      24.378618 E_impro  =       0.491077 E_vdwl   =       4.102662 
E_coul   =      23.360294 E_long   =     -26.137518 Press    =    -318.456756
------------ Step           1040 ----- CPU =     7.442649 (sec) -------------
TotEng   =     185.473687 KinEng   =       0.000000 Temp     =       0.000000 
PotEng   =     185.473687 E_bond   =      31.085559 E_angle  =     128.210009 
E_dihed  =      24.378618 E_impro  =       0.491077 E_vdwl   =       4.025966 
E_coul   =      23.421631 E_long   =     -26.139173 Press    =    -313.948316
------------ Step           1050 ----- CPU =     7.529589 (sec) -------------
TotEng   =     184.444923 KinEng   =       0.000000 Temp     =       0.000000 
PotEng   =     184.444923 E_bond   =      31.085559 E_angle  =     128.210009 
E_dihed  =      24.378618 E_impro  =       0.491077 E_vdwl   =       2.835561 
E_coul   =      23.591872 E_long   =     -26.147772 Press    =    -303.186059
------------ Step           1060 ----- CPU =     7.617565 (sec) -------------
TotEng   =     184.288951 KinEng   =       0.000000 Temp     =       0.000000 
PotEng   =     184.288951 E_bond   =      31.085559 E_angle  =     128.210009 
E_dihed  =      24.378618 E_impro  =       0.491077 E_vdwl   =       2.462002 
E_coul   =      23.797859 E_long   =     -26.136171 Press    =    -141.711918
------------ Step           1070 ----- CPU =     7.705403 (sec) -------------
TotEng   =     183.942072 KinEng   =       0.000000 Temp     =       0.000000 
PotEng   =     183.942072 E_bond   =      31.085559 E_angle  =     128.210009 
E_dihed  =      24.378618 E_impro  =       0.491077 E_vdwl   =       2.109880 
E_coul   =      23.803211 E_long   =     -26.136280 Press    =    -221.638399
------------ Step           1080 ----- CPU =     7.793423 (sec) -------------
TotEng   =     186.994515 KinEng   =       0.000000 Temp     =       0.000000 
PotEng   =     186.994515 E_bond   =      31.085559 E_angle  =     128.210009 
E_dihed  =      24.378618 E_impro  =       0.491077 E_vdwl   =       5.185881 
E_coul   =      23.791260 E_long   =     -26.147889 Press    =    -382.393944
------------ Step           1090 ----- CPU =     7.881848 (sec) -------------
TotEng   =     185.799742 KinEng   =       0.000000 Temp     =       0.000000 
PotEng   =     185.799742 E_bond   =      31.085559 E_angle  =     128.210009 
E_dihed  =      24.378618 E_impro  =       0.491077 E_vdwl   =       3.850135 
E_coul   =      23.921312 E_long   =     -26.136967 Press    =    -238.845632
------------ Step           1100 ----- CPU =     7.969362 (sec) -------------
TotEng   =     186.778842 KinEng   =       0.000000 Temp     =       0.000000 
PotEng   =     186.778842 E_bond   =      31.085559 E_angle  =     128.210009 
E_dihed  =      24.378618 E_impro  =       0.491077 E_vdwl   =       4.991134 
E_coul   =      23.760485 E_long   =     -26.138039 Press    =    -326.697028
------------ Step           1110 ----- CPU =     8.058086 (sec) -------------
TotEng   =     187.523737 KinEng   =       0.000000 Temp     =       0.000000 
PotEng   =     187.523737 E_bond   =      31.085559 E_angle  =     128.210009 
E_dihed  =      24.378618 E_impro  =       0.491077 E_vdwl   =       5.530158 
E_coul   =      23.972591 E_long   =     -26.144274 Press    =    -330.068791
------------ Step           1120 ----- CPU =     8.147009 (sec) -------------
TotEng   =     184.058862 KinEng   =       0.000000 Temp     =       0.000000 
PotEng   =     184.058862 E_bond   =      31.085559 E_angle  =     128.210009 
E_dihed  =      24.378618 E_impro  =       0.491077 E_vdwl   =       2.195834 
E_coul   =      23.841324 E_long   =     -26.143558 Press    =    -297.644782
------------ Step           1130 ----- CPU =     8.236164 (sec) -------------
TotEng   =     184.828413 KinEng   =       0.000000 Temp     =       0.000000 
PotEng   =     184.828413 E_bond   =      31.085559 E_angle  =     128.210009 
E_dihed  =      24.378618 E_impro  =       0.491077 E_vdwl   =       3.092174 
E_coul   =      23.710050 E_long   =     -26.139072 Press    =    -395.482216
------------ Step           1140 ----- CPU =     8.325259 (sec) -------------
TotEng   =     184.434139 KinEng   =       0.000000 Temp     =       0.000000 
PotEng   =     184.434139 E_bond   =      31.085559 E_angle  =     128.210009 
E_dihed  =      24.378618 E_impro  =       0.491077 E_vdwl   =       2.718129 
E_coul   =      23.695282 E_long   =     -26.144534 Press    =    -353.353139
------------ Step           1150 ----- CPU =      8.41419 (sec) -------------
TotEng   =     183.782143 KinEng   =       0.000000 Temp     =       0.000000 
PotEng   =     183.782143 E_bond   =      31.085559 E_angle  =     128.210009 
E_dihed  =      24.378618 E_impro  =       0.491077 E_vdwl   =       1.925733 
E_coul   =      23.834023 E_long   =     -26.142875 Press    =    -292.647473
------------ Step           1160 ----- CPU =     8.503932 (sec) -------------
TotEng   =     186.637127 KinEng   =       0.000000 Temp     =       0.000000 
PotEng   =     186.637127 E_bond   =      31.085559 E_angle  =     128.210009 
E_dihed  =      24.378618 E_impro  =       0.491077 E_vdwl   =       4.590340 
E_coul   =      24.032222 E_long   =     -26.150698 Press    =    -328.606166
------------ Step           1170 ----- CPU =     8.593383 (sec) -------------
TotEng   =     186.657249 KinEng   =       0.000000 Temp     =       0.000000 
PotEng   =     186.657249 E_bond   =      31.085559 E_angle  =     128.210009 
E_dihed  =      24.378618 E_impro  =       0.491077 E_vdwl   =       4.703174 
E_coul   =      23.935197 E_long   =     -26.146384 Press    =    -348.003290
------------ Step           1180 ----- CPU =     8.682566 (sec) -------------
TotEng   =     185.172157 KinEng   =       0.000000 Temp     =       0.000000 
PotEng   =     185.172157 E_bond   =      31.085559 E_angle  =     128.210009 
E_dihed  =      24.378618 E_impro  =       0.491077 E_vdwl   =       3.322300 
E_coul   =      23.831079 E_long   =     -26.146485 Press    =    -335.018362
------------ Step           1190 ----- CPU =     8.772073 (sec) -------------
TotEng   =     183.016483 KinEng   =       0.000000 Temp     =       0.000000 
PotEng   =     183.016483 E_bond   =      31.085559 E_angle  =     128.210009 
E_dihed  =      24.378618 E_impro  =       0.491077 E_vdwl   =       1.172752 
E_coul   =      23.818082 E_long   =     -26.139613 Press    =    -300.279510
------------ Step           1200 ----- CPU =     8.861346 (sec) -------------
TotEng   =     183.216639 KinEng   =       0.000000 Temp     =       0.000000 
PotEng   =     183.216639 E_bond   =      31.085559 E_angle  =     128.210009 
E_dihed  =      24.378618 E_impro  =       0.491077 E_vdwl   =       1.420828 
E_coul   =      23.767404 E_long   =     -26.136856 Press    =    -324.625064
------------ Step           1210 ----- CPU =     8.951116 (sec) -------------
TotEng   =     183.439053 KinEng   =       0.000000 Temp     =       0.000000 
PotEng   =     183.439053 E_bond   =      31.085559 E_angle  =     128.210009 
E_dihed  =      24.378618 E_impro  =       0.491077 E_vdwl   =       1.597809 
E_coul   =      23.811669 E_long   =     -26.135688 Press    =    -254.056690
------------ Step           1220 ----- CPU =     9.040729 (sec) -------------
TotEng   =     183.640964 KinEng   =       0.000000 Temp     =       0.000000 
PotEng   =     183.640964 E_bond   =      31.085559 E_angle  =     128.210009 
E_dihed  =      24.378618 E_impro  =       0.491077 E_vdwl   =       1.740520 
E_coul   =      23.864020 E_long   =     -26.128837 Press    =    -383.681552
------------ Step           1230 ----- CPU =     9.130424 (sec) -------------
TotEng   =     182.875822 KinEng   =       0.000000 Temp     =       0.000000 
PotEng   =     182.875822 E_bond   =      31.085559 E_angle  =     128.210009 
E_dihed  =      24.378618 E_impro  =       0.491077 E_vdwl   =       0.997512 
E_coul   =      23.846323 E_long   =     -26.133275 Press    =    -325.256226
------------ Step           1240 ----- CPU =      9.21997 (sec) -------------
TotEng   =     182.848529 KinEng   =       0.000000 Temp     =       0.000000 
PotEng   =     182.848529 E_bond   =      31.085559 E_angle  =     128.210009 
E_dihed  =      24.378618 E_impro  =       0.491077 E_vdwl   =       0.943355 
E_coul   =      23.867054 E_long   =     -26.127143 Press    =    -232.448758
------------ Step           1250 ----- CPU =     9.310059 (sec) -------------
TotEng   =     185.094878 KinEng   =       0.000000 Temp     =       0.000000 
PotEng   =     185.094878 E_bond   =      31.085559 E_angle  =     128.210009 
E_dihed  =      24.378618 E_impro  =       0.491077 E_vdwl   =       3.241241 
E_coul   =      23.800544 E_long   =     -26.112170 Press    =    -353.878623
------------ Step           1260 ----- CPU =     9.399685 (sec) -------------
TotEng   =     182.611740 KinEng   =       0.000000 Temp     =       0.000000 
PotEng   =     182.611740 E_bond   =      31.085559 E_angle  =     128.210009 
E_dihed  =      24.378618 E_impro  =       0.491077 E_vdwl   =       0.664420 
E_coul   =      23.908539 E_long   =     -26.126482 Press    =    -320.942993
------------ Step           1270 ----- CPU =     9.489342 (sec) -------------
TotEng   =     182.698382 KinEng   =       0.000000 Temp     =       0.000000 
PotEng   =     182.698382 E_bond   =      31.085559 E_angle  =     128.210009 
E_dihed  =      24.378618 E_impro  =       0.491077 E_vdwl   =       0.786543 
E_coul   =      23.873522 E_long   =     -26.126946 Press    =    -287.644058
------------ Step           1280 ----- CPU =     9.579682 (sec) -------------
TotEng   =     183.132231 KinEng   =       0.000000 Temp     =       0.000000 
PotEng   =     183.132231 E_bond   =      31.085559 E_angle  =     128.210009 
E_dihed  =      24.378618 E_impro  =       0.491077 E_vdwl   =       1.218235 
E_coul   =      23.861341 E_long   =     -26.112607 Press    =    -357.891037
------------ Step           1290 ----- CPU =     9.669696 (sec) -------------
TotEng   =     184.411968 KinEng   =       0.000000 Temp     =       0.000000 
PotEng   =     184.411968 E_bond   =      31.085559 E_angle  =     128.210009 
E_dihed  =      24.378618 E_impro  =       0.491077 E_vdwl   =       2.577900 
E_coul   =      23.776152 E_long   =     -26.107346 Press    =    -367.975237
------------ Step           1300 ----- CPU =     9.759508 (sec) -------------
TotEng   =     182.297685 KinEng   =       0.000000 Temp     =       0.000000 
PotEng   =     182.297685 E_bond   =      31.085559 E_angle  =     128.210009 
E_dihed  =      24.378618 E_impro  =       0.491077 E_vdwl   =       0.509181 
E_coul   =      23.728930 E_long   =     -26.105688 Press    =    -350.249566
------------ Step           1310 ----- CPU =     9.849968 (sec) -------------
TotEng   =     181.480171 KinEng   =       0.000000 Temp     =       0.000000 
PotEng   =     181.480171 E_bond   =      31.085559 E_angle  =     128.210009 
E_dihed  =      24.378618 E_impro  =       0.491077 E_vdwl   =      -0.254270 
E_coul   =      23.675705 E_long   =     -26.106526 Press    =    -317.204345
------------ Step           1320 ----- CPU =     9.940292 (sec) -------------
TotEng   =     183.040115 KinEng   =       0.000000 Temp     =       0.000000 
PotEng   =     183.040115 E_bond   =      31.085559 E_angle  =     128.210009 
E_dihed  =      24.378618 E_impro  =       0.491077 E_vdwl   =       1.728319 
E_coul   =      23.257413 E_long   =     -26.110878 Press    =    -415.110395
------------ Step           1330 ----- CPU =     10.03062 (sec) -------------
TotEng   =     182.519447 KinEng   =       0.000000 Temp     =       0.000000 
PotEng   =     182.519447 E_bond   =      31.085559 E_angle  =     128.210009 
E_dihed  =      24.378618 E_impro  =       0.491077 E_vdwl   =       0.787800 
E_coul   =      23.681774 E_long   =     -26.115389 Press    =    -296.056723
------------ Step           1340 ----- CPU =     10.12056 (sec) -------------
TotEng   =     180.317025 KinEng   =       0.000000 Temp     =       0.000000 
PotEng   =     180.317025 E_bond   =      31.085559 E_angle  =     128.210009 
E_dihed  =      24.378618 E_impro  =       0.491077 E_vdwl   =      -1.543610 
E_coul   =      23.793447 E_long   =     -26.098074 Press    =    -351.763123
------------ Step           1350 ----- CPU =     10.21016 (sec) -------------
TotEng   =     180.228057 KinEng   =       0.000000 Temp     =       0.000000 
PotEng   =     180.228057 E_bond   =      31.085559 E_angle  =     128.210009 
E_dihed  =      24.378618 E_impro  =       0.491077 E_vdwl   =      -1.592374 
E_coul   =      23.755262 E_long   =     -26.100092 Press    =    -355.221288
------------ Step           1360 ----- CPU =     10.30053 (sec) -------------
TotEng   =     181.323065 KinEng   =       0.000000 Temp     =       0.000000 
PotEng   =     181.323065 E_bond   =      31.085559 E_angle  =     128.210009 
E_dihed  =      24.378618 E_impro  =       0.491077 E_vdwl   =      -0.517370 
E_coul   =      23.775836 E_long   =     -26.100664 Press    =    -247.269867
------------ Step           1370 ----- CPU =     10.39089 (sec) -------------
TotEng   =     180.131018 KinEng   =       0.000000 Temp     =       0.000000 
PotEng   =     180.131018 E_bond   =      31.085559 E_angle  =     128.210009 
E_dihed  =      24.378618 E_impro  =       0.491077 E_vdwl   =      -1.691364 
E_coul   =      23.754483 E_long   =     -26.097363 Press    =    -333.051223
------------ Step           1380 ----- CPU =     10.48085 (sec) -------------
TotEng   =     180.471938 KinEng   =       0.000000 Temp     =       0.000000 
PotEng   =     180.471938 E_bond   =      31.085559 E_angle  =     128.210009 
E_dihed  =      24.378618 E_impro  =       0.491077 E_vdwl   =      -1.370728 
E_coul   =      23.774931 E_long   =     -26.097528 Press    =    -286.090412
------------ Step           1390 ----- CPU =     10.57057 (sec) -------------
TotEng   =     180.316625 KinEng   =       0.000000 Temp     =       0.000000 
PotEng   =     180.316625 E_bond   =      31.085559 E_angle  =     128.210009 
E_dihed  =      24.378618 E_impro  =       0.491077 E_vdwl   =      -1.482861 
E_coul   =      23.736589 E_long   =     -26.102365 Press    =    -324.562655
------------ Step           1400 ----- CPU =     10.66042 (sec) -------------
TotEng   =     180.404655 KinEng   =       0.000000 Temp     =       0.000000 
PotEng   =     180.404655 E_bond   =      31.085559 E_angle  =     128.210009 
E_dihed  =      24.378618 E_impro  =       0.491077 E_vdwl   =      -1.388847 
E_coul   =      23.724716 E_long   =     -26.096476 Press    =    -338.695074
------------ Step           1410 ----- CPU =     10.75041 (sec) -------------
TotEng   =     180.213387 KinEng   =       0.000000 Temp     =       0.000000 
PotEng   =     180.213387 E_bond   =      31.085559 E_angle  =     128.210009 
E_dihed  =      24.378618 E_impro  =       0.491077 E_vdwl   =      -1.596653 
E_coul   =      23.743295 E_long   =     -26.098517 Press    =    -348.089156
------------ Step           1420 ----- CPU =      10.8399 (sec) -------------
TotEng   =     180.857700 KinEng   =       0.000000 Temp     =       0.000000 
PotEng   =     180.857700 E_bond   =      31.085559 E_angle  =     128.210009 
E_dihed  =      24.378618 E_impro  =       0.491077 E_vdwl   =      -1.025405 
E_coul   =      23.814097 E_long   =     -26.096255 Press    =    -339.444849
------------ Step           1430 ----- CPU =     10.92949 (sec) -------------
TotEng   =     179.813871 KinEng   =       0.000000 Temp     =       0.000000 
PotEng   =     179.813871 E_bond   =      31.085559 E_angle  =     128.210009 
E_dihed  =      24.378618 E_impro  =       0.491077 E_vdwl   =      -2.097269 
E_coul   =      23.843336 E_long   =     -26.097458 Press    =    -334.498860
------------ Step           1440 ----- CPU =     11.01933 (sec) -------------
TotEng   =     180.303125 KinEng   =       0.000000 Temp     =       0.000000 
PotEng   =     180.303125 E_bond   =      31.085559 E_angle  =     128.210009 
E_dihed  =      24.378618 E_impro  =       0.491077 E_vdwl   =      -1.618727 
E_coul   =      23.856362 E_long   =     -26.099772 Press    =    -236.458057
------------ Step           1450 ----- CPU =     11.10876 (sec) -------------
TotEng   =     180.446280 KinEng   =       0.000000 Temp     =       0.000000 
PotEng   =     180.446280 E_bond   =      31.085559 E_angle  =     128.210009 
E_dihed  =      24.378618 E_impro  =       0.491077 E_vdwl   =      -1.347466 
E_coul   =      23.727308 E_long   =     -26.098824 Press    =    -395.054660
------------ Step           1460 ----- CPU =     11.19826 (sec) -------------
TotEng   =     180.761108 KinEng   =       0.000000 Temp     =       0.000000 
PotEng   =     180.761108 E_bond   =      31.085559 E_angle  =     128.210009 
E_dihed  =      24.378618 E_impro  =       0.491077 E_vdwl   =      -1.337724 
E_coul   =      24.030528 E_long   =     -26.096958 Press    =    -371.905123
------------ Step           1470 ----- CPU =     11.28769 (sec) -------------
TotEng   =     179.282841 KinEng   =       0.000000 Temp     =       0.000000 
PotEng   =     179.282841 E_bond   =      31.085559 E_angle  =     128.210009 
E_dihed  =      24.378618 E_impro  =       0.491077 E_vdwl   =      -2.697146 
E_coul   =      23.911619 E_long   =     -26.096895 Press    =    -346.456305
------------ Step           1480 ----- CPU =     11.37746 (sec) -------------
TotEng   =     179.571890 KinEng   =       0.000000 Temp     =       0.000000 
PotEng   =     179.571890 E_bond   =      31.085559 E_angle  =     128.210009 
E_dihed  =      24.378618 E_impro  =       0.491077 E_vdwl   =      -2.101147 
E_coul   =      23.607543 E_long   =     -26.099768 Press    =    -346.839531
------------ Step           1490 ----- CPU =     11.46758 (sec) -------------
TotEng   =     179.564596 KinEng   =       0.000000 Temp     =       0.000000 
PotEng   =     179.564596 E_bond   =      31.085559 E_angle  =     128.210009 
E_dihed  =      24.378618 E_impro  =       0.491077 E_vdwl   =      -2.302861 
E_coul   =      23.799840 E_long   =     -26.097645 Press    =    -414.906451
------------ Step           1500 ----- CPU =     11.55756 (sec) -------------
TotEng   =     179.240462 KinEng   =       0.000000 Temp     =       0.000000 
PotEng   =     179.240462 E_bond   =      31.085559 E_angle  =     128.210009 
E_dihed  =      24.378618 E_impro  =       0.491077 E_vdwl   =      -2.493380 
E_coul   =      23.666974 E_long   =     -26.098395 Press    =    -377.142133
------------ Step           1510 ----- CPU =     11.64746 (sec) -------------
TotEng   =     179.682098 KinEng   =       0.000000 Temp     =       0.000000 
PotEng   =     179.682098 E_bond   =      31.085559 E_angle  =     128.210009 
E_dihed  =      24.378618 E_impro  =       0.491077 E_vdwl   =      -2.056350 
E_coul   =      23.671132 E_long   =     -26.097946 Press    =    -354.873530
------------ Step           1520 ----- CPU =     11.73703 (sec) -------------
TotEng   =     178.883449 KinEng   =       0.000000 Temp     =       0.000000 
PotEng   =     178.883449 E_bond   =      31.085559 E_angle  =     128.210009 
E_dihed  =      24.378618 E_impro  =       0.491077 E_vdwl   =      -2.883244 
E_coul   =      23.698310 E_long   =     -26.096880 Press    =    -361.977486
------------ Step           1530 ----- CPU =     11.82695 (sec) -------------
TotEng   =     180.071292 KinEng   =       0.000000 Temp     =       0.000000 
PotEng   =     180.071292 E_bond   =      31.085559 E_angle  =     128.210009 
E_dihed  =      24.378618 E_impro  =       0.491077 E_vdwl   =      -1.867979 
E_coul   =      23.872361 E_long   =     -26.098352 Press    =    -403.196090
------------ Step           1540 ----- CPU =     11.91656 (sec) -------------
TotEng   =     181.322304 KinEng   =       0.000000 Temp     =       0.000000 
PotEng   =     181.322304 E_bond   =      31.085559 E_angle  =     128.210009 
E_dihed  =      24.378618 E_impro  =       0.491077 E_vdwl   =      -0.470828 
E_coul   =      23.724495 E_long   =     -26.096624 Press    =    -349.508733
------------ Step           1550 ----- CPU =     12.00569 (sec) -------------
TotEng   =     182.565236 KinEng   =       0.000000 Temp     =       0.000000 
PotEng   =     182.565236 E_bond   =      31.085559 E_angle  =     128.210009 
E_dihed  =      24.378618 E_impro  =       0.491077 E_vdwl   =       0.780004 
E_coul   =      23.738602 E_long   =     -26.118633 Press    =    -322.579928
------------ Step           1560 ----- CPU =     12.09486 (sec) -------------
TotEng   =     180.901953 KinEng   =       0.000000 Temp     =       0.000000 
PotEng   =     180.901953 E_bond   =      31.085559 E_angle  =     128.210009 
E_dihed  =      24.378618 E_impro  =       0.491077 E_vdwl   =      -0.755456 
E_coul   =      23.607130 E_long   =     -26.114983 Press    =    -355.378101
------------ Step           1570 ----- CPU =     12.18339 (sec) -------------
TotEng   =     180.564934 KinEng   =       0.000000 Temp     =       0.000000 
PotEng   =     180.564934 E_bond   =      31.085559 E_angle  =     128.210009 
E_dihed  =      24.378618 E_impro  =       0.491077 E_vdwl   =      -0.901587 
E_coul   =      23.427471 E_long   =     -26.126212 Press    =    -348.403924
------------ Step           1580 ----- CPU =     12.27116 (sec) -------------
TotEng   =     180.074223 KinEng   =       0.000000 Temp     =       0.000000 
PotEng   =     180.074223 E_bond   =      31.085559 E_angle  =     128.210009 
E_dihed  =      24.378618 E_impro  =       0.491077 E_vdwl   =      -1.159836 
E_coul   =      23.213162 E_long   =     -26.144365 Press    =    -319.797921
------------ Step           1590 ----- CPU =     12.35884 (sec) -------------
TotEng   =     180.722616 KinEng   =       0.000000 Temp     =       0.000000 
PotEng   =     180.722616 E_bond   =      31.085559 E_angle  =     128.210009 
E_dihed  =      24.378618 E_impro  =       0.491077 E_vdwl   =      -0.752494 
E_coul   =      23.429400 E_long   =     -26.119553 Press    =    -405.902865
[...]
E_dihed  =      24.378618 E_impro  =       0.491077 E_vdwl   =      -3.611362 
E_coul   =      23.318818 E_long   =     -26.137040 Press    =    -292.479828
------------ Step           9730 ----- CPU =     83.71133 (sec) -------------
TotEng   =     177.990670 KinEng   =       0.000000 Temp     =       0.000000 
PotEng   =     177.990670 E_bond   =      31.085559 E_angle  =     128.210009 
E_dihed  =      24.378618 E_impro  =       0.491077 E_vdwl   =      -3.348665 
E_coul   =      23.304788 E_long   =     -26.130715 Press    =    -319.896419
------------ Step           9740 ----- CPU =     83.80019 (sec) -------------
TotEng   =     177.754005 KinEng   =       0.000000 Temp     =       0.000000 
PotEng   =     177.754005 E_bond   =      31.085559 E_angle  =     128.210009 
E_dihed  =      24.378618 E_impro  =       0.491077 E_vdwl   =      -3.608015 
E_coul   =      23.337007 E_long   =     -26.140250 Press    =    -230.869570
------------ Step           9750 ----- CPU =     83.88876 (sec) -------------
TotEng   =     177.028159 KinEng   =       0.000000 Temp     =       0.000000 
PotEng   =     177.028159 E_bond   =      31.085559 E_angle  =     128.210009 
E_dihed  =      24.378618 E_impro  =       0.491077 E_vdwl   =      -4.374583 
E_coul   =      23.375612 E_long   =     -26.138133 Press    =    -361.918732
------------ Step           9760 ----- CPU =     83.97797 (sec) -------------
TotEng   =     179.334862 KinEng   =       0.000000 Temp     =       0.000000 
PotEng   =     179.334862 E_bond   =      31.085559 E_angle  =     128.210009 
E_dihed  =      24.378618 E_impro  =       0.491077 E_vdwl   =      -2.449991 
E_coul   =      23.774842 E_long   =     -26.155251 Press    =    -406.703291
------------ Step           9770 ----- CPU =     84.06684 (sec) -------------
TotEng   =     179.444390 KinEng   =       0.000000 Temp     =       0.000000 
PotEng   =     179.444390 E_bond   =      31.085559 E_angle  =     128.210009 
E_dihed  =      24.378618 E_impro  =       0.491077 E_vdwl   =      -2.092029 
E_coul   =      23.523613 E_long   =     -26.152456 Press    =    -289.534240
------------ Step           9780 ----- CPU =     84.15629 (sec) -------------
TotEng   =     180.558516 KinEng   =       0.000000 Temp     =       0.000000 
PotEng   =     180.558516 E_bond   =      31.085559 E_angle  =     128.210009 
E_dihed  =      24.378618 E_impro  =       0.491077 E_vdwl   =      -1.114879 
E_coul   =      23.655453 E_long   =     -26.147320 Press    =    -402.998459
------------ Step           9790 ----- CPU =     84.24534 (sec) -------------
TotEng   =     179.041240 KinEng   =       0.000000 Temp     =       0.000000 
PotEng   =     179.041240 E_bond   =      31.085559 E_angle  =     128.210009 
E_dihed  =      24.378618 E_impro  =       0.491077 E_vdwl   =      -2.473618 
E_coul   =      23.488450 E_long   =     -26.138854 Press    =    -381.957021
------------ Step           9800 ----- CPU =      84.3346 (sec) -------------
TotEng   =     177.661719 KinEng   =       0.000000 Temp     =       0.000000 
PotEng   =     177.661719 E_bond   =      31.085559 E_angle  =     128.210009 
E_dihed  =      24.378618 E_impro  =       0.491077 E_vdwl   =      -3.780526 
E_coul   =      23.417530 E_long   =     -26.140547 Press    =    -408.812215
------------ Step           9810 ----- CPU =     84.42395 (sec) -------------
TotEng   =     176.840623 KinEng   =       0.000000 Temp     =       0.000000 
PotEng   =     176.840623 E_bond   =      31.085559 E_angle  =     128.210009 
E_dihed  =      24.378618 E_impro  =       0.491077 E_vdwl   =      -4.501788 
E_coul   =      23.311344 E_long   =     -26.134195 Press    =    -338.375754
------------ Step           9820 ----- CPU =     84.51308 (sec) -------------
TotEng   =     177.136602 KinEng   =       0.000000 Temp     =       0.000000 
PotEng   =     177.136602 E_bond   =      31.085559 E_angle  =     128.210009 
E_dihed  =      24.378618 E_impro  =       0.491077 E_vdwl   =      -4.253315 
E_coul   =      23.360912 E_long   =     -26.136256 Press    =    -336.974453
------------ Step           9830 ----- CPU =     84.60287 (sec) -------------
TotEng   =     178.027682 KinEng   =       0.000000 Temp     =       0.000000 
PotEng   =     178.027682 E_bond   =      31.085559 E_angle  =     128.210009 
E_dihed  =      24.378618 E_impro  =       0.491077 E_vdwl   =      -3.328277 
E_coul   =      23.326832 E_long   =     -26.136135 Press    =    -211.929492
------------ Step           9840 ----- CPU =     84.69216 (sec) -------------
TotEng   =     177.642499 KinEng   =       0.000000 Temp     =       0.000000 
PotEng   =     177.642499 E_bond   =      31.085559 E_angle  =     128.210009 
E_dihed  =      24.378618 E_impro  =       0.491077 E_vdwl   =      -3.753528 
E_coul   =      23.367594 E_long   =     -26.136830 Press    =    -254.660746
------------ Step           9850 ----- CPU =     84.78155 (sec) -------------
TotEng   =     177.636517 KinEng   =       0.000000 Temp     =       0.000000 
PotEng   =     177.636517 E_bond   =      31.085559 E_angle  =     128.210009 
E_dihed  =      24.378618 E_impro  =       0.491077 E_vdwl   =      -3.761654 
E_coul   =      23.369796 E_long   =     -26.136887 Press    =    -255.905884
------------ Step           9860 ----- CPU =     84.87084 (sec) -------------
TotEng   =     177.543869 KinEng   =       0.000000 Temp     =       0.000000 
PotEng   =     177.543869 E_bond   =      31.085559 E_angle  =     128.210009 
E_dihed  =      24.378618 E_impro  =       0.491077 E_vdwl   =      -3.824211 
E_coul   =      23.337404 E_long   =     -26.134586 Press    =    -432.143916
------------ Step           9870 ----- CPU =     84.96054 (sec) -------------
TotEng   =     178.729399 KinEng   =       0.000000 Temp     =       0.000000 
PotEng   =     178.729399 E_bond   =      31.085559 E_angle  =     128.210009 
E_dihed  =      24.378618 E_impro  =       0.491077 E_vdwl   =      -2.699475 
E_coul   =      23.395197 E_long   =     -26.131586 Press    =    -325.988459
------------ Step           9880 ----- CPU =     85.05015 (sec) -------------
TotEng   =     179.910915 KinEng   =       0.000000 Temp     =       0.000000 
PotEng   =     179.910915 E_bond   =      31.085559 E_angle  =     128.210009 
E_dihed  =      24.378618 E_impro  =       0.491077 E_vdwl   =      -1.537515 
E_coul   =      23.416453 E_long   =     -26.133285 Press    =    -457.079148
------------ Step           9890 ----- CPU =     85.13992 (sec) -------------
TotEng   =     177.818164 KinEng   =       0.000000 Temp     =       0.000000 
PotEng   =     177.818164 E_bond   =      31.085559 E_angle  =     128.210009 
E_dihed  =      24.378618 E_impro  =       0.491077 E_vdwl   =      -3.660468 
E_coul   =      23.442000 E_long   =     -26.128631 Press    =    -269.258421
------------ Step           9900 ----- CPU =     85.22953 (sec) -------------
TotEng   =     178.838328 KinEng   =       0.000000 Temp     =       0.000000 
PotEng   =     178.838328 E_bond   =      31.085559 E_angle  =     128.210009 
E_dihed  =      24.378618 E_impro  =       0.491077 E_vdwl   =      -2.765591 
E_coul   =      23.579060 E_long   =     -26.140403 Press    =    -355.636031
------------ Step           9910 ----- CPU =     85.31876 (sec) -------------
TotEng   =     179.716006 KinEng   =       0.000000 Temp     =       0.000000 
PotEng   =     179.716006 E_bond   =      31.085559 E_angle  =     128.210009 
E_dihed  =      24.378618 E_impro  =       0.491077 E_vdwl   =      -1.840776 
E_coul   =      23.522230 E_long   =     -26.130711 Press    =    -114.472636
------------ Step           9920 ----- CPU =     85.40822 (sec) -------------
TotEng   =     178.817444 KinEng   =       0.000000 Temp     =       0.000000 
PotEng   =     178.817444 E_bond   =      31.085559 E_angle  =     128.210009 
E_dihed  =      24.378618 E_impro  =       0.491077 E_vdwl   =      -2.760909 
E_coul   =      23.545883 E_long   =     -26.132792 Press    =    -221.488224
------------ Step           9930 ----- CPU =     85.49752 (sec) -------------
TotEng   =     179.025183 KinEng   =       0.000000 Temp     =       0.000000 
PotEng   =     179.025183 E_bond   =      31.085559 E_angle  =     128.210009 
E_dihed  =      24.378618 E_impro  =       0.491077 E_vdwl   =      -2.573411 
E_coul   =      23.572343 E_long   =     -26.139010 Press    =    -255.292926
------------ Step           9940 ----- CPU =     85.58667 (sec) -------------
TotEng   =     178.004556 KinEng   =       0.000000 Temp     =       0.000000 
PotEng   =     178.004556 E_bond   =      31.085559 E_angle  =     128.210009 
E_dihed  =      24.378618 E_impro  =       0.491077 E_vdwl   =      -3.655417 
E_coul   =      23.626190 E_long   =     -26.131479 Press    =    -292.008768
------------ Step           9950 ----- CPU =     85.67605 (sec) -------------
TotEng   =     177.742502 KinEng   =       0.000000 Temp     =       0.000000 
PotEng   =     177.742502 E_bond   =      31.085559 E_angle  =     128.210009 
E_dihed  =      24.378618 E_impro  =       0.491077 E_vdwl   =      -3.874000 
E_coul   =      23.582168 E_long   =     -26.130928 Press    =    -301.782062
------------ Step           9960 ----- CPU =     85.76587 (sec) -------------
TotEng   =     178.728639 KinEng   =       0.000000 Temp     =       0.000000 
PotEng   =     178.728639 E_bond   =      31.085559 E_angle  =     128.210009 
E_dihed  =      24.378618 E_impro  =       0.491077 E_vdwl   =      -2.739059 
E_coul   =      23.430944 E_long   =     -26.128508 Press    =    -375.438263
------------ Step           9970 ----- CPU =     85.85569 (sec) -------------
TotEng   =     179.356750 KinEng   =       0.000000 Temp     =       0.000000 
PotEng   =     179.356750 E_bond   =      31.085559 E_angle  =     128.210009 
E_dihed  =      24.378618 E_impro  =       0.491077 E_vdwl   =      -2.101448 
E_coul   =      23.423638 E_long   =     -26.130703 Press    =    -399.711563
------------ Step           9980 ----- CPU =     85.94532 (sec) -------------
TotEng   =     179.843264 KinEng   =       0.000000 Temp     =       0.000000 
PotEng   =     179.843264 E_bond   =      31.085559 E_angle  =     128.210009 
E_dihed  =      24.378618 E_impro  =       0.491077 E_vdwl   =      -1.496620 
E_coul   =      23.313132 E_long   =     -26.138510 Press    =    -446.004852
------------ Step           9990 ----- CPU =     86.03505 (sec) -------------
TotEng   =     180.857642 KinEng   =       0.000000 Temp     =       0.000000 
PotEng   =     180.857642 E_bond   =      31.085559 E_angle  =     128.210009 
E_dihed  =      24.378618 E_impro  =       0.491077 E_vdwl   =      -0.448158 
E_coul   =      23.272209 E_long   =     -26.131671 Press    =    -171.625659
------------ Step          10000 ----- CPU =     86.12453 (sec) -------------
TotEng   =     180.230313 KinEng   =       0.000000 Temp     =       0.000000 
PotEng   =     180.230313 E_bond   =      31.085559 E_angle  =     128.210009 
E_dihed  =      24.378618 E_impro  =       0.491077 E_vdwl   =      -1.114012 
E_coul   =      23.319586 E_long   =     -26.140523 Press    =    -465.263390
------------ Step          10010 ----- CPU =     86.21365 (sec) -------------
TotEng   =     178.695455 KinEng   =       0.000000 Temp     =       0.000000 
PotEng   =     178.695455 E_bond   =      31.085559 E_angle  =     128.210009 
E_dihed  =      24.378618 E_impro  =       0.491077 E_vdwl   =      -2.710759 
E_coul   =      23.374575 E_long   =     -26.133624 Press    =    -329.703017
------------ Step          10020 ----- CPU =     86.30254 (sec) -------------
TotEng   =     179.611910 KinEng   =       0.000000 Temp     =       0.000000 
PotEng   =     179.611910 E_bond   =      31.085559 E_angle  =     128.210009 
E_dihed  =      24.378618 E_impro  =       0.491077 E_vdwl   =      -1.561714 
E_coul   =      23.149795 E_long   =     -26.141432 Press    =    -277.629331
------------ Step          10030 ----- CPU =     86.39104 (sec) -------------
TotEng   =     176.646127 KinEng   =       0.000000 Temp     =       0.000000 
PotEng   =     176.646127 E_bond   =      31.085559 E_angle  =     128.210009 
E_dihed  =      24.378618 E_impro  =       0.491077 E_vdwl   =      -4.579677 
E_coul   =      23.213646 E_long   =     -26.153104 Press    =    -354.569143
------------ Step          10040 ----- CPU =     86.47977 (sec) -------------
TotEng   =     178.178197 KinEng   =       0.000000 Temp     =       0.000000 
PotEng   =     178.178197 E_bond   =      31.085559 E_angle  =     128.210009 
E_dihed  =      24.378618 E_impro  =       0.491077 E_vdwl   =      -3.033268 
E_coul   =      23.200415 E_long   =     -26.154212 Press    =    -418.775299
------------ Step          10050 ----- CPU =     86.56805 (sec) -------------
TotEng   =     179.137163 KinEng   =       0.000000 Temp     =       0.000000 
PotEng   =     179.137163 E_bond   =      31.085559 E_angle  =     128.210009 
E_dihed  =      24.378618 E_impro  =       0.491077 E_vdwl   =      -2.283674 
E_coul   =      23.409756 E_long   =     -26.154180 Press    =    -172.333363
------------ Step          10060 ----- CPU =     86.65653 (sec) -------------
TotEng   =     178.037001 KinEng   =       0.000000 Temp     =       0.000000 
PotEng   =     178.037001 E_bond   =      31.085559 E_angle  =     128.210009 
E_dihed  =      24.378618 E_impro  =       0.491077 E_vdwl   =      -3.410624 
E_coul   =      23.436475 E_long   =     -26.154112 Press    =    -380.878567
------------ Step          10070 ----- CPU =     86.74511 (sec) -------------
TotEng   =     176.614658 KinEng   =       0.000000 Temp     =       0.000000 
PotEng   =     176.614658 E_bond   =      31.085559 E_angle  =     128.210009 
E_dihed  =      24.378618 E_impro  =       0.491077 E_vdwl   =      -4.662431 
E_coul   =      23.258012 E_long   =     -26.146186 Press    =    -315.792582
------------ Step          10080 ----- CPU =     86.83348 (sec) -------------
TotEng   =     176.248673 KinEng   =       0.000000 Temp     =       0.000000 
PotEng   =     176.248673 E_bond   =      31.085559 E_angle  =     128.210009 
E_dihed  =      24.378618 E_impro  =       0.491077 E_vdwl   =      -4.956651 
E_coul   =      23.183481 E_long   =     -26.143419 Press    =    -349.524212
------------ Step          10090 ----- CPU =      86.9218 (sec) -------------
TotEng   =     176.546559 KinEng   =       0.000000 Temp     =       0.000000 
PotEng   =     176.546559 E_bond   =      31.085559 E_angle  =     128.210009 
E_dihed  =      24.378618 E_impro  =       0.491077 E_vdwl   =      -4.712619 
E_coul   =      23.239451 E_long   =     -26.145535 Press    =    -394.835948
------------ Step          10100 ----- CPU =     87.00967 (sec) -------------
TotEng   =     176.583029 KinEng   =       0.000000 Temp     =       0.000000 
PotEng   =     176.583029 E_bond   =      31.085559 E_angle  =     128.210009 
E_dihed  =      24.378618 E_impro  =       0.491077 E_vdwl   =      -4.729369 
E_coul   =      23.287567 E_long   =     -26.140430 Press    =    -321.447501
------------ Step          10110 ----- CPU =      87.0978 (sec) -------------
TotEng   =     176.791758 KinEng   =       0.000000 Temp     =       0.000000 
PotEng   =     176.791758 E_bond   =      31.085559 E_angle  =     128.210009 
E_dihed  =      24.378618 E_impro  =       0.491077 E_vdwl   =      -4.531257 
E_coul   =      23.296559 E_long   =     -26.138806 Press    =    -305.983309
------------ Step          10120 ----- CPU =     87.18584 (sec) -------------
TotEng   =     176.602738 KinEng   =       0.000000 Temp     =       0.000000 
PotEng   =     176.602738 E_bond   =      31.085559 E_angle  =     128.210009 
E_dihed  =      24.378618 E_impro  =       0.491077 E_vdwl   =      -4.677969 
E_coul   =      23.262179 E_long   =     -26.146734 Press    =    -392.474144
------------ Step          10130 ----- CPU =     87.27375 (sec) -------------
TotEng   =     176.491130 KinEng   =       0.000000 Temp     =       0.000000 
PotEng   =     176.491130 E_bond   =      31.085559 E_angle  =     128.210009 
E_dihed  =      24.378618 E_impro  =       0.491077 E_vdwl   =      -4.783691 
E_coul   =      23.254009 E_long   =     -26.144450 Press    =    -288.197781
------------ Step          10140 ----- CPU =       87.362 (sec) -------------
TotEng   =     178.373843 KinEng   =       0.000000 Temp     =       0.000000 
PotEng   =     178.373843 E_bond   =      31.085559 E_angle  =     128.210009 
E_dihed  =      24.378618 E_impro  =       0.491077 E_vdwl   =      -2.658837 
E_coul   =      23.003756 E_long   =     -26.136339 Press    =    -186.945061
------------ Step          10150 ----- CPU =     87.44989 (sec) -------------
TotEng   =     176.596214 KinEng   =       0.000000 Temp     =       0.000000 
PotEng   =     176.596214 E_bond   =      31.085559 E_angle  =     128.210009 
E_dihed  =      24.378618 E_impro  =       0.491077 E_vdwl   =      -4.679528 
E_coul   =      23.250550 E_long   =     -26.140070 Press    =    -369.144428
------------ Step          10160 ----- CPU =     87.53808 (sec) -------------
TotEng   =     177.382707 KinEng   =       0.000000 Temp     =       0.000000 
PotEng   =     177.382707 E_bond   =      31.085559 E_angle  =     128.210009 
E_dihed  =      24.378618 E_impro  =       0.491077 E_vdwl   =      -3.803312 
E_coul   =      23.170028 E_long   =     -26.149271 Press    =    -382.737894
------------ Step          10170 ----- CPU =     87.62615 (sec) -------------
TotEng   =     176.925085 KinEng   =       0.000000 Temp     =       0.000000 
PotEng   =     176.925085 E_bond   =      31.085559 E_angle  =     128.210009 
E_dihed  =      24.378618 E_impro  =       0.491077 E_vdwl   =      -4.042773 
E_coul   =      22.938120 E_long   =     -26.135524 Press    =    -272.721155
------------ Step          10180 ----- CPU =      87.7146 (sec) -------------
TotEng   =     177.806790 KinEng   =       0.000000 Temp     =       0.000000 
PotEng   =     177.806790 E_bond   =      31.085559 E_angle  =     128.210009 
E_dihed  =      24.378618 E_impro  =       0.491077 E_vdwl   =      -3.356737 
E_coul   =      23.144736 E_long   =     -26.146471 Press    =    -413.714969
------------ Step          10190 ----- CPU =     87.80327 (sec) -------------
TotEng   =     176.714704 KinEng   =       0.000000 Temp     =       0.000000 
PotEng   =     176.714704 E_bond   =      31.085559 E_angle  =     128.210009 
E_dihed  =      24.378618 E_impro  =       0.491077 E_vdwl   =      -4.410157 
E_coul   =      23.104798 E_long   =     -26.145200 Press    =    -382.452613
Loop time of 87.8033 on 1 procs for 10000 steps with 122 atoms

Performance: 4.920 ns/day, 4.878 hours/ns, 113.891 timesteps/s, 13.895 katom-step/s
99.7% CPU use with 1 MPI tasks x 1 OpenMP threads

MPI task timing breakdown:
Section |  min time  |  avg time  |  max time  |%varavg| %total
---------------------------------------------------------------
Pair    | 0.95223    | 0.95223    | 0.95223    |   0.0 |  1.08
Bond    | 0.30702    | 0.30702    | 0.30702    |   0.0 |  0.35
Kspace  | 0.39708    | 0.39708    | 0.39708    |   0.0 |  0.45
Neigh   | 0.58002    | 0.58002    | 0.58002    |   0.0 |  0.66
Comm    | 0.058986   | 0.058986   | 0.058986   |   0.0 |  0.07
Output  | 0.18929    | 0.18929    | 0.18929    |   0.0 |  0.22
Modify  | 85.31      | 85.31      | 85.31      |   0.0 | 97.16
Other   |            | 0.008329   |            |       |  0.01

Nlocal:            122 ave         122 max         122 min
Histogram: 1 0 0 0 0 0 0 0 0 0
Nghost:           1382 ave        1382 max        1382 min
Histogram: 1 0 0 0 0 0 0 0 0 0
Neighs:           7863 ave        7863 max        7863 min
Histogram: 1 0 0 0 0 0 0 0 0 0

Total # of neighbors = 7863
Ave neighs/atom = 64.45082
Ave special neighs/atom = 10.967213
Neighbor list builds = 102000
Dangerous builds = 0
unfix                1
undump               2
Total wall time: 0:01:27
