LAMMPS (8 Feb 2023)
OMP_NUM_THREADS environment is not set. Defaulting to 1 thread. (src/comm.cpp:98)
  using 1 OpenMP thread(s) per MPI task
# define variables

variable       spacing index 10.0
variable       lbox index 20.0
variable       sname string simplified_mc
variable       rtemp index 300


#package omp 4

units           real
atom_style      full
boundary        p p p
#pair_style      lj/cut/coul/long  14
pair_style      lj/charmm/coul/long/opt 13 14.00000
#pair_modify     mix arithmetic tail yes
#special_bonds   lj/coul 0.0 0.0 1.0
kspace_style    ewald 0.0001
bond_style      harmonic
angle_style     harmonic
dihedral_style  harmonic
improper_style  umbrella
#kspace_style    pppm 0.0001

# initialize a simple cumbic box for the initial structure

lattice        sc ${spacing}
lattice        sc 10.0
Lattice spacing in x,y,z = 10 10 10
region         mybox block 0 ${lbox} 0 ${lbox} 0 ${lbox} units box
region         mybox block 0 20.0 0 ${lbox} 0 ${lbox} units box
region         mybox block 0 20.0 0 20.0 0 ${lbox} units box
region         mybox block 0 20.0 0 20.0 0 20.0 units box
create_box     8 mybox                bond/types 13                angle/types 5                dihedral/types 11                improper/types 1                extra/bond/per/atom 13                extra/angle/per/atom 10                extra/dihedral/per/atom 20                extra/improper/per/atom 20                extra/special/per/atom 100
Created orthogonal box = (0 0 0) to (20 20 20)
  1 by 1 by 1 MPI processor grid

molecule       69 xlig.lammps.txt
Read molecule template 69:
  1 molecules
  0 fragments
  68 atoms with max type 7
  70 bonds with max type 10
  128 angles with max type 4
  188 dihedrals with max type 11
  39 impropers with max type 1
molecule       420 oleic.lammps.txt
Read molecule template 420:
  1 molecules
  0 fragments
  54 atoms with max type 6
  53 bonds with max type 13
  100 angles with max type 5
  141 dihedrals with max type 9
  9 impropers with max type 1


pair_modify          mix geometric
#neighbor             2.0 multi
#neigh_modify         every 2 delay 4 check yes
thermo_style         multi
thermo_modify        line multi format float %14.6f flush yes



# originally used box instead of single, which takes no args and auto populates the box until full
create_atoms   0 single 10 10 10   mol 69 42 units box
Created 68 atoms
  using box units in orthogonal box = (0 0 0) to (20 20 20)
  create_atoms CPU = 0.001 seconds
create_atoms   0 single 0 0 0  mol 420 42 units box
Created 54 atoms
  using box units in orthogonal box = (0 0 0) to (20 20 20)
  create_atoms CPU = 0.000 seconds


group xligand molecule == 69
0 atoms in group xligand
#group xligand id 1:68
#group xligand include molecule

group oleic_acid molecule == 420
0 atoms in group oleic_acid
#group oleic_acid id 69:122
#group oleic_acid include molecule



# coeffs
# Masses

mass    1 1.2011E+01 # C_3
mass    2 1.4007E+01 # N_3
mass    3 1.2011E+01 # C_R
mass    4 1.5999E+01 # O_2
mass    5 3.2060E+01 # S_3
mass    6 1.0080E+00 # H_
mass    7 1.0080E+00 # H___A
mass    8 1.5999E+01 # O_R


pair_coeff           1 1 0.09510000 3.47299041 # C_3 C_3
pair_coeff           2 2 0.07740000 3.26256026 # N_3 N_3
pair_coeff           3 3 0.09510000 3.47299041 # C_R C_R
pair_coeff           4 4 0.09570000 3.03315369 # O_2 O_2
pair_coeff           5 5 0.34400001 3.59032202 # S_3 S_3
pair_coeff           6 6 0.01520000 2.84642134 # H_ H_
pair_coeff           7 7 0.01520000 2.84642134 # H___A H___A
pair_coeff           8 8 0.09570000 3.03315369 # O_R O_R


pair_modify          mix geometric
neighbor             2.0 multi
neigh_modify         every 2 delay 4 check yes
thermo_style         multi
WARNING: New thermo_style command, previous thermo_modify settings will be lost (src/output.cpp:896)
thermo_modify        line multi format float %14.6f flush yes

bond_coeff           1 350 1.53000 # C_3 C_3
bond_coeff           2 350 1.09000 # C_3 H_
bond_coeff           3 350 1.46200 # N_3 C_3
bond_coeff           4 350 1.39200 # N_3 C_R
bond_coeff           5 525 1.39000 # C_R C_R
bond_coeff           6 350 1.02000 # C_R H_
bond_coeff           7 700 1.25000 # O_2 C_R
bond_coeff           8 350 1.73000 # S_3 C_R
bond_coeff           9 350 1.80000 # S_3 C_3
bond_coeff           10 350 1.36000 # S_3 H___A
bond_coeff           11 525 1.35000 # O_R C_R
bond_coeff           12 350 0.98000 # O_R H___A
bond_coeff           13 350 1.46000 # C_R C_3


angle_coeff          1 50 109.47100 # X C_3 X
angle_coeff          2 50 106.70000 # X N_3 X
angle_coeff          3 50 120 # X C_R X
angle_coeff          4 50 92.10000 # X S_3 X
angle_coeff          5 50 120 # X O_R X


dihedral_coeff       1 0.08333 -1 6 # C_R C_R C_3 X
dihedral_coeff       2 0.08333 -1 6 # O_2 C_R C_3 X
dihedral_coeff       3 0.08333 -1 6 # O_R C_R C_3 X
dihedral_coeff       4 0.11111 1 3 # X C_3 C_3 X
dihedral_coeff       5 0.16667 1 3 # X C_R C_3 X
dihedral_coeff       6 3.12500 -1 2 # X C_R C_R X
dihedral_coeff       7 0.16667 1 3 # X N_3 C_3 X
dihedral_coeff       8 0.12500 -1 6 # X N_3 C_R C_R
dihedral_coeff       9 6.25000 -1 2 # X O_R C_R X
dihedral_coeff       10 0.33333 1 3 # X S_3 C_3 X
dihedral_coeff       11 0.50000 -1 2 # X S_3 C_R X

improper_coeff       1 13.33333 0 # C_R X X X

timestep             0.5

print                .
.
print                ==========================================
==========================================
print                "500 steps CG Minimization"
500 steps CG Minimization
print                ==========================================
==========================================
print                .
.

dump                 1 all custom 25 ${sname}.min.lammpstrj id type xu yu zu vx vy vz
dump                 1 all custom 25 simplified_mc.min.lammpstrj id type xu yu zu vx vy vz
thermo               10
min_style            cg
minimize             1.0e-4 1.0e-4 500 5000

CITE-CITE-CITE-CITE-CITE-CITE-CITE-CITE-CITE-CITE-CITE-CITE-CITE

Your simulation uses code contributions which should be cited:

- neighbor multi command: doi:10.1016/j.cpc.2008.03.005, doi:10.1007/s40571-020-00361-2

@Article{Intveld08,
 author =  {in 't Veld, P. J. and S. J.~Plimpton and G. S. Grest},
 title =   {Accurate and Efficient Methods for Modeling Colloidal
            Mixtures in an Explicit Solvent using Molecular Dynamics},
 journal = {Comput.\ Phys.\ Commut.},
 year =    2008,
 volume =  179,
 pages =   {320--329}
}

@article{Shire2020,
 author = {Shire, Tom and Hanley, Kevin J. and Stratford, Kevin},
 title = {{DEM} Simulations of Polydisperse Media: Efficient Contact
          Detection Applied to Investigate the Quasi-Static Limit},
 journal = {Computational Particle Mechanics},
 year = {2020}
}

CITE-CITE-CITE-CITE-CITE-CITE-CITE-CITE-CITE-CITE-CITE-CITE-CITE

Switching to 'neigh_modify every 1 delay 0 check yes' setting during minimization
Ewald initialization ...
WARNING: System is not charge neutral, net charge = -0.0006 (src/kspace.cpp:327)
  using 12-bit tables for long-range coulomb (src/kspace.cpp:342)
  G vector (1/distance) = 0.091315817
  estimated absolute RMS force accuracy = 0.034067589
  estimated relative force accuracy = 0.00010259353
  KSpace vectors: actual max1d max3d = 3 1 13
                  kxmax kymax kzmax  = 1 1 1
Generated 28 of 28 mixed pair_coeff terms from geometric mixing rule
Neighbor list info ...
  update: every = 1 steps, delay = 0 steps, check = yes
  max neighbors/atom: 2000, page size: 100000
  master list distance cutoff = 16
  ghost atom cutoff = 16
  binsize = 8, bins = 3 3 3
  1 neighbor lists, perpetual/occasional/extra = 1 0 0
  (1) pair lj/charmm/coul/long/opt, perpetual
      attributes: half, newton on
      pair build: half/multi/newton
      stencil: half/multi/3d
      bin: multi
Per MPI rank memory allocation (min/avg/max) = 34.05 | 34.05 | 34.05 Mbytes
------------ Step              0 ----- CPU =            0 (sec) -------------
TotEng   =   47702.739403 KinEng   =       0.000000 Temp     =       0.000000 
PotEng   =   47702.739403 E_bond   =     110.088059 E_angle  =      36.601372 
E_dihed  =      19.805602 E_impro  =       3.329327 E_vdwl   =   47534.568145 
E_coul   =      14.541173 E_long   =     -16.194275 Press    = 1638353.761727
------------ Step             10 ----- CPU =  0.004470574 (sec) -------------
TotEng   =     596.328787 KinEng   =       0.000000 Temp     =       0.000000 
PotEng   =     596.328787 E_bond   =      29.092585 E_angle  =     169.458814 
E_dihed  =      21.557488 E_impro  =       0.960121 E_vdwl   =     377.158172 
E_coul   =      14.292449 E_long   =     -16.190841 Press    =   19067.998260
------------ Step             20 ----- CPU =   0.01088963 (sec) -------------
TotEng   =     249.850599 KinEng   =       0.000000 Temp     =       0.000000 
PotEng   =     249.850599 E_bond   =      35.496544 E_angle  =     124.677896 
E_dihed  =      28.321853 E_impro  =       0.443008 E_vdwl   =      63.072505 
E_coul   =      14.029424 E_long   =     -16.190631 Press    =    2722.572857
------------ Step             30 ----- CPU =   0.01798716 (sec) -------------
TotEng   =     225.972273 KinEng   =       0.000000 Temp     =       0.000000 
PotEng   =     225.972273 E_bond   =      39.618210 E_angle  =     129.254209 
E_dihed  =      30.451618 E_impro  =       0.382901 E_vdwl   =      28.391768 
E_coul   =      14.064877 E_long   =     -16.191311 Press    =     305.603343
------------ Step             40 ----- CPU =   0.02486583 (sec) -------------
TotEng   =     219.786672 KinEng   =       0.000000 Temp     =       0.000000 
PotEng   =     219.786672 E_bond   =      34.484094 E_angle  =     129.084093 
E_dihed  =      30.985085 E_impro  =       0.487246 E_vdwl   =      26.817438 
E_coul   =      14.121248 E_long   =     -16.192534 Press    =     307.202091
------------ Step             50 ----- CPU =   0.03192036 (sec) -------------
TotEng   =     215.723883 KinEng   =       0.000000 Temp     =       0.000000 
PotEng   =     215.723883 E_bond   =      33.890767 E_angle  =     124.123501 
E_dihed  =      31.058740 E_impro  =       0.646177 E_vdwl   =      28.070354 
E_coul   =      14.128338 E_long   =     -16.193995 Press    =     378.696982
------------ Step             60 ----- CPU =   0.03971949 (sec) -------------
TotEng   =     211.069248 KinEng   =       0.000000 Temp     =       0.000000 
PotEng   =     211.069248 E_bond   =      32.989417 E_angle  =     125.700686 
E_dihed  =      31.930270 E_impro  =       0.637513 E_vdwl   =      22.013072 
E_coul   =      13.993409 E_long   =     -16.195120 Press    =      -4.340969
------------ Step             70 ----- CPU =    0.0466154 (sec) -------------
TotEng   =     208.852078 KinEng   =       0.000000 Temp     =       0.000000 
PotEng   =     208.852078 E_bond   =      31.731766 E_angle  =     125.592842 
E_dihed  =      32.788984 E_impro  =       0.501010 E_vdwl   =      20.700952 
E_coul   =      13.731832 E_long   =     -16.195308 Press    =     -19.031962
------------ Step             80 ----- CPU =   0.05367648 (sec) -------------
TotEng   =     207.619682 KinEng   =       0.000000 Temp     =       0.000000 
PotEng   =     207.619682 E_bond   =      30.797855 E_angle  =     124.635052 
E_dihed  =      32.280441 E_impro  =       0.410012 E_vdwl   =      21.931183 
E_coul   =      13.760014 E_long   =     -16.194875 Press    =      17.143243
------------ Step             90 ----- CPU =   0.06055048 (sec) -------------
TotEng   =     205.989502 KinEng   =       0.000000 Temp     =       0.000000 
PotEng   =     205.989502 E_bond   =      31.262144 E_angle  =     123.459366 
E_dihed  =      31.357782 E_impro  =       0.513904 E_vdwl   =      21.977937 
E_coul   =      13.612277 E_long   =     -16.193908 Press    =    -182.860197
------------ Step             95 ----- CPU =   0.08242517 (sec) -------------
TotEng   =     205.345434 KinEng   =       0.000000 Temp     =       0.000000 
PotEng   =     205.345434 E_bond   =      31.256940 E_angle  =     124.109575 
E_dihed  =      30.968575 E_impro  =       0.522200 E_vdwl   =      21.072483 
E_coul   =      13.609042 E_long   =     -16.193379 Press    =    -268.491226
Loop time of 0.0824384 on 1 procs for 95 steps with 122 atoms

97.9% CPU use with 1 MPI tasks x 1 OpenMP threads

Minimization stats:
  Stopping criterion = linesearch alpha is zero
  Energy initial, next-to-last, final = 
      47702.7394031284   205.345434110941   205.345434110941
  Force two-norm initial, final = 806464.22 17.295112
  Force max component initial, final = 496010.82 3.8946361
  Final line search alpha, max atom move = 3.9542969e-11 1.5400547e-10
  Iterations, force evaluations = 95 232

MPI task timing breakdown:
Section |  min time  |  avg time  |  max time  |%varavg| %total
---------------------------------------------------------------
Pair    | 0.066798   | 0.066798   | 0.066798   |   0.0 | 81.03
Bond    | 0.0077778  | 0.0077778  | 0.0077778  |   0.0 |  9.43
Kspace  | 0.0031977  | 0.0031977  | 0.0031977  |   0.0 |  3.88
Neigh   | 0.0016624  | 0.0016624  | 0.0016624  |   0.0 |  2.02
Comm    | 0.0015484  | 0.0015484  | 0.0015484  |   0.0 |  1.88
Output  | 0.00067702 | 0.00067702 | 0.00067702 |   0.0 |  0.82
Modify  | 0          | 0          | 0          |   0.0 |  0.00
Other   |            | 0.000777   |            |       |  0.94

Nlocal:            122 ave         122 max         122 min
Histogram: 1 0 0 0 0 0 0 0 0 0
Nghost:           1778 ave        1778 max        1778 min
Histogram: 1 0 0 0 0 0 0 0 0 0
Neighs:          14789 ave       14789 max       14789 min
Histogram: 1 0 0 0 0 0 0 0 0 0

Total # of neighbors = 14789
Ave neighs/atom = 121.22131
Ave special neighs/atom = 10.967213
Neighbor list builds = 2
Dangerous builds = 0
min_style            sd
minimize             1.0e-4 1.0e-4 500 5000
Switching to 'neigh_modify every 1 delay 0 check yes' setting during minimization
Ewald initialization ...
  using 12-bit tables for long-range coulomb (src/kspace.cpp:342)
  G vector (1/distance) = 0.091315817
  estimated absolute RMS force accuracy = 0.034067589
  estimated relative force accuracy = 0.00010259353
  KSpace vectors: actual max1d max3d = 3 1 13
                  kxmax kymax kzmax  = 1 1 1
Generated 28 of 28 mixed pair_coeff terms from geometric mixing rule
Per MPI rank memory allocation (min/avg/max) = 34.05 | 34.05 | 34.05 Mbytes
------------ Step             95 ----- CPU =            0 (sec) -------------
TotEng   =     205.345434 KinEng   =       0.000000 Temp     =       0.000000 
PotEng   =     205.345434 E_bond   =      31.256940 E_angle  =     124.109575 
E_dihed  =      30.968575 E_impro  =       0.522200 E_vdwl   =      21.072483 
E_coul   =      13.609042 E_long   =     -16.193379 Press    =    -268.491226
------------ Step            100 ----- CPU =  0.003684959 (sec) -------------
TotEng   =     205.173040 KinEng   =       0.000000 Temp     =       0.000000 
PotEng   =     205.173040 E_bond   =      31.264771 E_angle  =     123.956632 
E_dihed  =      30.955378 E_impro  =       0.531958 E_vdwl   =      21.049732 
E_coul   =      13.607982 E_long   =     -16.193413 Press    =    -244.190797
------------ Step            104 ----- CPU =  0.007013399 (sec) -------------
TotEng   =     205.076324 KinEng   =       0.000000 Temp     =       0.000000 
PotEng   =     205.076324 E_bond   =      31.237050 E_angle  =     123.939660 
E_dihed  =      30.940751 E_impro  =       0.530301 E_vdwl   =      21.027027 
E_coul   =      13.594959 E_long   =     -16.193424 Press    =    -237.321352
Loop time of 0.00702666 on 1 procs for 9 steps with 122 atoms

99.6% CPU use with 1 MPI tasks x 1 OpenMP threads

Minimization stats:
  Stopping criterion = energy tolerance
  Energy initial, next-to-last, final = 
      205.345434110941   205.096470468925   205.076324343458
  Force two-norm initial, final = 17.295112 6.4188986
  Force max component initial, final = 3.8946361 1.6463643
  Final line search alpha, max atom move = 0.026816678 0.044150021
  Iterations, force evaluations = 9 18

MPI task timing breakdown:
Section |  min time  |  avg time  |  max time  |%varavg| %total
---------------------------------------------------------------
Pair    | 0.0055711  | 0.0055711  | 0.0055711  |   0.0 | 79.28
Bond    | 0.00064203 | 0.00064203 | 0.00064203 |   0.0 |  9.14
Kspace  | 0.00026699 | 0.00026699 | 0.00026699 |   0.0 |  3.80
Neigh   | 0          | 0          | 0          |   0.0 |  0.00
Comm    | 0.00011567 | 0.00011567 | 0.00011567 |   0.0 |  1.65
Output  | 0.00019631 | 0.00019631 | 0.00019631 |   0.0 |  2.79
Modify  | 0          | 0          | 0          |   0.0 |  0.00
Other   |            | 0.0002346  |            |       |  3.34

Nlocal:            122 ave         122 max         122 min
Histogram: 1 0 0 0 0 0 0 0 0 0
Nghost:           1772 ave        1772 max        1772 min
Histogram: 1 0 0 0 0 0 0 0 0 0
Neighs:          14833 ave       14833 max       14833 min
Histogram: 1 0 0 0 0 0 0 0 0 0

Total # of neighbors = 14833
Ave neighs/atom = 121.58197
Ave special neighs/atom = 10.967213
Neighbor list builds = 0
Dangerous builds = 0
#now                 minimize the entire system
minimize             1.0e-4 1.0e-4 500 5000
Switching to 'neigh_modify every 1 delay 0 check yes' setting during minimization
Ewald initialization ...
  using 12-bit tables for long-range coulomb (src/kspace.cpp:342)
  G vector (1/distance) = 0.091315817
  estimated absolute RMS force accuracy = 0.034067589
  estimated relative force accuracy = 0.00010259353
  KSpace vectors: actual max1d max3d = 3 1 13
                  kxmax kymax kzmax  = 1 1 1
Generated 28 of 28 mixed pair_coeff terms from geometric mixing rule
Per MPI rank memory allocation (min/avg/max) = 34.05 | 34.05 | 34.05 Mbytes
------------ Step            104 ----- CPU =            0 (sec) -------------
TotEng   =     205.076324 KinEng   =       0.000000 Temp     =       0.000000 
PotEng   =     205.076324 E_bond   =      31.237050 E_angle  =     123.939660 
E_dihed  =      30.940751 E_impro  =       0.530301 E_vdwl   =      21.027027 
E_coul   =      13.594959 E_long   =     -16.193424 Press    =    -237.321352
------------ Step            105 ----- CPU =  0.001259986 (sec) -------------
TotEng   =     205.056190 KinEng   =       0.000000 Temp     =       0.000000 
PotEng   =     205.056190 E_bond   =      31.246060 E_angle  =     123.917920 
E_dihed  =      30.937011 E_impro  =       0.530112 E_vdwl   =      21.023341 
E_coul   =      13.595173 E_long   =     -16.193426 Press    =    -233.838700
Loop time of 0.00127324 on 1 procs for 1 steps with 122 atoms

99.8% CPU use with 1 MPI tasks x 1 OpenMP threads

Minimization stats:
  Stopping criterion = energy tolerance
  Energy initial, next-to-last, final = 
      205.076324343458   205.076324343458   205.056190121107
  Force two-norm initial, final = 6.4188986 10.477346
  Force max component initial, final = 1.6463643 3.789046
  Final line search alpha, max atom move = 0.060739898 0.23014627
  Iterations, force evaluations = 1 2

MPI task timing breakdown:
Section |  min time  |  avg time  |  max time  |%varavg| %total
---------------------------------------------------------------
Pair    | 0.00089838 | 0.00089838 | 0.00089838 |   0.0 | 70.56
Bond    | 0.00011101 | 0.00011101 | 0.00011101 |   0.0 |  8.72
Kspace  | 4.3943e-05 | 4.3943e-05 | 4.3943e-05 |   0.0 |  3.45
Neigh   | 0          | 0          | 0          |   0.0 |  0.00
Comm    | 1.8465e-05 | 1.8465e-05 | 1.8465e-05 |   0.0 |  1.45
Output  | 0          | 0          | 0          |   0.0 |  0.00
Modify  | 0          | 0          | 0          |   0.0 |  0.00
Other   |            | 0.0002014  |            |       | 15.82

Nlocal:            122 ave         122 max         122 min
Histogram: 1 0 0 0 0 0 0 0 0 0
Nghost:           1772 ave        1772 max        1772 min
Histogram: 1 0 0 0 0 0 0 0 0 0
Neighs:          14835 ave       14835 max       14835 min
Histogram: 1 0 0 0 0 0 0 0 0 0

Total # of neighbors = 14835
Ave neighs/atom = 121.59836
Ave special neighs/atom = 10.967213
Neighbor list builds = 0
Dangerous builds = 0
undump               1

print                .
.
print                =====================================
=====================================
print                "NVT dynamics to heat system"
NVT dynamics to heat system
print                =====================================
=====================================
print                .
.

reset_timestep       0
##fix                  shakeH all shake 0.0001 20 500 m 1.0079
velocity             all create 0.0 12345678 dist uniform
thermo               100
dump                 1 all custom 1000 ${sname}.heat.lammpstrj id type xu yu zu vx vy vz
dump                 1 all custom 1000 simplified_mc.heat.lammpstrj id type xu yu zu vx vy vz
fix                  4 all nvt temp 1.0 300.0 100.0
run                  10000
Ewald initialization ...
  using 12-bit tables for long-range coulomb (src/kspace.cpp:342)
  G vector (1/distance) = 0.091315817
  estimated absolute RMS force accuracy = 0.034067589
  estimated relative force accuracy = 0.00010259353
  KSpace vectors: actual max1d max3d = 3 1 13
                  kxmax kymax kzmax  = 1 1 1
Generated 28 of 28 mixed pair_coeff terms from geometric mixing rule
Per MPI rank memory allocation (min/avg/max) = 32.92 | 32.92 | 32.92 Mbytes
------------ Step              0 ----- CPU =            0 (sec) -------------
TotEng   =     205.056190 KinEng   =       0.000000 Temp     =       0.000000 
PotEng   =     205.056190 E_bond   =      31.246060 E_angle  =     123.917920 
E_dihed  =      30.937011 E_impro  =       0.530112 E_vdwl   =      21.023341 
E_coul   =      13.595173 E_long   =     -16.193426 Press    =    -233.838700
------------ Step            100 ----- CPU =   0.02496254 (sec) -------------
TotEng   =     205.217066 KinEng   =       0.839134 Temp     =       2.326546 
PotEng   =     204.377932 E_bond   =      31.040304 E_angle  =     123.553050 
E_dihed  =      30.372280 E_impro  =       0.499438 E_vdwl   =      21.402784 
E_coul   =      13.703515 E_long   =     -16.193439 Press    =    -123.389257
------------ Step            200 ----- CPU =   0.04961287 (sec) -------------
TotEng   =     205.420164 KinEng   =       2.072195 Temp     =       5.745275 
PotEng   =     203.347969 E_bond   =      30.915965 E_angle  =     123.927007 
E_dihed  =      29.549693 E_impro  =       0.477456 E_vdwl   =      20.997836 
E_coul   =      13.672686 E_long   =     -16.192673 Press    =      -6.572282
------------ Step            300 ----- CPU =   0.07408435 (sec) -------------
TotEng   =     205.599440 KinEng   =       3.801582 Temp     =      10.540100 
PotEng   =     201.797858 E_bond   =      31.409340 E_angle  =     124.550529 
E_dihed  =      27.118543 E_impro  =       0.458474 E_vdwl   =      20.898966 
E_coul   =      13.554382 E_long   =     -16.192376 Press    =     -81.615393
------------ Step            400 ----- CPU =   0.09938204 (sec) -------------
TotEng   =     205.897009 KinEng   =       5.251535 Temp     =      14.560175 
PotEng   =     200.645474 E_bond   =      31.552738 E_angle  =     125.770613 
E_dihed  =      25.261143 E_impro  =       0.457457 E_vdwl   =      20.276150 
E_coul   =      13.519120 E_long   =     -16.191747 Press    =     -63.945480
------------ Step            500 ----- CPU =    0.1236441 (sec) -------------
TotEng   =     206.205125 KinEng   =       5.430092 Temp     =      15.055235 
PotEng   =     200.775033 E_bond   =      31.353474 E_angle  =     127.570437 
E_dihed  =      24.706981 E_impro  =       0.454656 E_vdwl   =      19.219631 
E_coul   =      13.661507 E_long   =     -16.191653 Press    =     -31.216025
------------ Step            600 ----- CPU =    0.1487417 (sec) -------------
TotEng   =     206.478690 KinEng   =       5.440339 Temp     =      15.083645 
PotEng   =     201.038350 E_bond   =      31.521790 E_angle  =     127.727925 
E_dihed  =      25.750486 E_impro  =       0.510830 E_vdwl   =      18.120446 
E_coul   =      13.598862 E_long   =     -16.191988 Press    =    -196.757547
------------ Step            700 ----- CPU =    0.1727803 (sec) -------------
TotEng   =     207.140252 KinEng   =       6.848386 Temp     =      18.987535 
PotEng   =     200.291866 E_bond   =      31.432076 E_angle  =     127.323474 
E_dihed  =      26.892531 E_impro  =       0.601575 E_vdwl   =      16.754180 
E_coul   =      13.480035 E_long   =     -16.192005 Press    =    -343.118250
------------ Step            800 ----- CPU =    0.1979832 (sec) -------------
TotEng   =     208.055582 KinEng   =       9.572613 Temp     =      26.540607 
PotEng   =     198.482969 E_bond   =      31.581567 E_angle  =     128.440219 
E_dihed  =      25.293397 E_impro  =       0.673467 E_vdwl   =      15.229656 
E_coul   =      13.457684 E_long   =     -16.193021 Press    =    -318.694678
------------ Step            900 ----- CPU =    0.2232053 (sec) -------------
TotEng   =     208.493541 KinEng   =       9.192018 Temp     =      25.485386 
PotEng   =     199.301523 E_bond   =      31.639035 E_angle  =     129.125764 
E_dihed  =      25.136268 E_impro  =       0.867212 E_vdwl   =      15.419783 
E_coul   =      13.307961 E_long   =     -16.194501 Press    =    -154.313150
------------ Step           1000 ----- CPU =    0.2478299 (sec) -------------
TotEng   =     209.377482 KinEng   =       8.952193 Temp     =      24.820455 
PotEng   =     200.425289 E_bond   =      30.638719 E_angle  =     129.291199 
E_dihed  =      26.763731 E_impro  =       0.748886 E_vdwl   =      15.777081 
E_coul   =      13.401429 E_long   =     -16.195757 Press    =     -71.030396
------------ Step           1100 ----- CPU =    0.2731283 (sec) -------------
TotEng   =     210.821456 KinEng   =       9.899409 Temp     =      27.446666 
PotEng   =     200.922047 E_bond   =      29.915156 E_angle  =     129.727113 
E_dihed  =      28.267807 E_impro  =       0.613307 E_vdwl   =      14.941716 
E_coul   =      13.653469 E_long   =     -16.196520 Press    =     -34.718990
------------ Step           1200 ----- CPU =    0.2971638 (sec) -------------
TotEng   =     211.969366 KinEng   =      10.820709 Temp     =      30.001023 
PotEng   =     201.148657 E_bond   =      29.975830 E_angle  =     130.195470 
E_dihed  =      28.850525 E_impro  =       0.647796 E_vdwl   =      14.131850 
E_coul   =      13.543986 E_long   =     -16.196802 Press    =     -80.369895
------------ Step           1300 ----- CPU =    0.3222525 (sec) -------------
TotEng   =     213.753708 KinEng   =      11.249657 Temp     =      31.190303 
PotEng   =     202.504051 E_bond   =      29.848711 E_angle  =     130.544249 
E_dihed  =      30.101996 E_impro  =       0.594749 E_vdwl   =      13.820392 
E_coul   =      13.791145 E_long   =     -16.197190 Press    =     -81.681823
------------ Step           1400 ----- CPU =    0.3473638 (sec) -------------
TotEng   =     215.473725 KinEng   =      12.903355 Temp     =      35.775274 
PotEng   =     202.570370 E_bond   =      29.268368 E_angle  =     129.928411 
E_dihed  =      31.087967 E_impro  =       0.511283 E_vdwl   =      14.224195 
E_coul   =      13.747898 E_long   =     -16.197752 Press    =      96.955629
------------ Step           1500 ----- CPU =    0.3725613 (sec) -------------
TotEng   =     217.246837 KinEng   =      15.197625 Temp     =      42.136265 
PotEng   =     202.049213 E_bond   =      29.660744 E_angle  =     129.919032 
E_dihed  =      31.404497 E_impro  =       0.553546 E_vdwl   =      13.010247 
E_coul   =      13.699526 E_long   =     -16.198379 Press    =      33.873492
------------ Step           1600 ----- CPU =    0.3967916 (sec) -------------
TotEng   =     218.764897 KinEng   =      18.669748 Temp     =      51.762922 
PotEng   =     200.095149 E_bond   =      29.983984 E_angle  =     130.417107 
E_dihed  =      30.235098 E_impro  =       0.539379 E_vdwl   =      11.754665 
E_coul   =      13.364123 E_long   =     -16.199207 Press    =     -98.553716
------------ Step           1700 ----- CPU =    0.4220324 (sec) -------------
TotEng   =     220.152105 KinEng   =      19.156643 Temp     =      53.112867 
PotEng   =     200.995461 E_bond   =      30.242512 E_angle  =     129.758780 
E_dihed  =      28.874897 E_impro  =       0.429604 E_vdwl   =      14.473357 
E_coul   =      13.416067 E_long   =     -16.199756 Press    =     -16.377345
------------ Step           1800 ----- CPU =    0.4471565 (sec) -------------
TotEng   =     221.124101 KinEng   =      20.002019 Temp     =      55.456717 
PotEng   =     201.122082 E_bond   =      29.236499 E_angle  =     132.892368 
E_dihed  =      25.414684 E_impro  =       0.386505 E_vdwl   =      15.978631 
E_coul   =      13.413727 E_long   =     -16.200332 Press    =     278.578596
------------ Step           1900 ----- CPU =     0.472427 (sec) -------------
TotEng   =     222.233439 KinEng   =      17.110541 Temp     =      47.439933 
PotEng   =     205.122898 E_bond   =      30.567861 E_angle  =     141.834821 
E_dihed  =      24.487172 E_impro  =       0.519889 E_vdwl   =      10.589727 
E_coul   =      13.321706 E_long   =     -16.198277 Press    =     -59.014446
------------ Step           2000 ----- CPU =    0.4980005 (sec) -------------
TotEng   =     224.763375 KinEng   =      18.519960 Temp     =      51.347628 
PotEng   =     206.243415 E_bond   =      31.287847 E_angle  =     141.858708 
E_dihed  =      27.201036 E_impro  =       0.626523 E_vdwl   =       7.804167 
E_coul   =      13.659491 E_long   =     -16.194358 Press    =    -336.968331
------------ Step           2100 ----- CPU =    0.5233794 (sec) -------------
TotEng   =     227.109496 KinEng   =      25.821163 Temp     =      71.590622 
PotEng   =     201.288332 E_bond   =      30.810476 E_angle  =     137.787852 
E_dihed  =      26.574854 E_impro  =       0.751062 E_vdwl   =       7.792179 
E_coul   =      13.760440 E_long   =     -16.188531 Press    =    -499.090117
------------ Step           2200 ----- CPU =    0.5487991 (sec) -------------
TotEng   =     228.122299 KinEng   =      23.876142 Temp     =      66.197941 
PotEng   =     204.246157 E_bond   =      30.780238 E_angle  =     139.216382 
E_dihed  =      22.645584 E_impro  =       1.031913 E_vdwl   =      13.056597 
E_coul   =      13.704802 E_long   =     -16.189358 Press    =     -85.377067
------------ Step           2300 ----- CPU =    0.5739871 (sec) -------------
TotEng   =     228.966132 KinEng   =      24.336769 Temp     =      67.475054 
PotEng   =     204.629363 E_bond   =      30.295521 E_angle  =     134.511188 
E_dihed  =      30.662938 E_impro  =       0.876927 E_vdwl   =      10.628329 
E_coul   =      13.842704 E_long   =     -16.188244 Press    =    -312.031700
------------ Step           2400 ----- CPU =    0.5994454 (sec) -------------
TotEng   =     229.768023 KinEng   =      26.151246 Temp     =      72.505795 
PotEng   =     203.616776 E_bond   =      29.417183 E_angle  =     137.628087 
E_dihed  =      31.065563 E_impro  =       1.138962 E_vdwl   =       6.954846 
E_coul   =      13.601643 E_long   =     -16.189508 Press    =     -64.794821
------------ Step           2500 ----- CPU =     0.624961 (sec) -------------
TotEng   =     230.778072 KinEng   =      25.398525 Temp     =      70.418834 
PotEng   =     205.379546 E_bond   =      28.756058 E_angle  =     141.080137 
E_dihed  =      30.346409 E_impro  =       0.994152 E_vdwl   =       6.738249 
E_coul   =      13.655324 E_long   =     -16.190783 Press    =     -71.898887
------------ Step           2600 ----- CPU =    0.6503822 (sec) -------------
TotEng   =     231.840414 KinEng   =      28.955090 Temp     =      80.279608 
PotEng   =     202.885325 E_bond   =      27.151241 E_angle  =     138.379667 
E_dihed  =      34.422512 E_impro  =       0.952113 E_vdwl   =       5.099865 
E_coul   =      13.070702 E_long   =     -16.190776 Press    =     162.714813
------------ Step           2700 ----- CPU =    0.6751869 (sec) -------------
TotEng   =     233.660191 KinEng   =      30.555523 Temp     =      84.716899 
PotEng   =     203.104668 E_bond   =      26.648830 E_angle  =     136.042583 
E_dihed  =      36.262962 E_impro  =       1.049351 E_vdwl   =       5.751471 
E_coul   =      13.540325 E_long   =     -16.190854 Press    =    -119.863068
------------ Step           2800 ----- CPU =     0.701106 (sec) -------------
TotEng   =     234.666974 KinEng   =      30.488112 Temp     =      84.529999 
PotEng   =     204.178862 E_bond   =      25.921105 E_angle  =     138.529820 
E_dihed  =      34.310584 E_impro  =       1.287632 E_vdwl   =       6.787986 
E_coul   =      13.531276 E_long   =     -16.189542 Press    =      28.440175
------------ Step           2900 ----- CPU =    0.7272455 (sec) -------------
TotEng   =     235.360768 KinEng   =      31.289949 Temp     =      86.753137 
PotEng   =     204.070819 E_bond   =      26.273910 E_angle  =     140.391543 
E_dihed  =      32.313298 E_impro  =       0.683903 E_vdwl   =       6.972550 
E_coul   =      13.622215 E_long   =     -16.186600 Press    =      63.249115
------------ Step           3000 ----- CPU =    0.7536472 (sec) -------------
TotEng   =     236.417851 KinEng   =      33.929267 Temp     =      94.070793 
PotEng   =     202.488583 E_bond   =      28.940511 E_angle  =     136.566417 
E_dihed  =      35.502765 E_impro  =       0.668383 E_vdwl   =       3.334145 
E_coul   =      13.665332 E_long   =     -16.188970 Press    =    -443.689843
------------ Step           3100 ----- CPU =    0.7796766 (sec) -------------
TotEng   =     237.128899 KinEng   =      35.878531 Temp     =      99.475236 
PotEng   =     201.250369 E_bond   =      29.610937 E_angle  =     139.646261 
E_dihed  =      29.710517 E_impro  =       0.712153 E_vdwl   =       3.797077 
E_coul   =      13.961487 E_long   =     -16.188063 Press    =    -851.723874
------------ Step           3200 ----- CPU =    0.8045116 (sec) -------------
TotEng   =     236.994302 KinEng   =      36.203507 Temp     =     100.376251 
PotEng   =     200.790795 E_bond   =      28.957515 E_angle  =     132.774914 
E_dihed  =      27.651254 E_impro  =       0.676853 E_vdwl   =      13.240927 
E_coul   =      13.677703 E_long   =     -16.188372 Press    =    -100.888034
------------ Step           3300 ----- CPU =    0.8302383 (sec) -------------
TotEng   =     236.403432 KinEng   =      34.832640 Temp     =      96.575445 
PotEng   =     201.570792 E_bond   =      30.033076 E_angle  =     133.412984 
E_dihed  =      33.609107 E_impro  =       0.513981 E_vdwl   =       6.779919 
E_coul   =      13.412840 E_long   =     -16.191115 Press    =     -24.220712
------------ Step           3400 ----- CPU =    0.8558176 (sec) -------------
TotEng   =     235.530842 KinEng   =      41.019038 Temp     =     113.727580 
PotEng   =     194.511804 E_bond   =      28.245867 E_angle  =     131.485123 
E_dihed  =      32.235418 E_impro  =       0.362999 E_vdwl   =       4.736603 
E_coul   =      13.637476 E_long   =     -16.191684 Press    =     -85.376429
------------ Step           3500 ----- CPU =    0.8809662 (sec) -------------
TotEng   =     232.775049 KinEng   =      35.757205 Temp     =      99.138854 
PotEng   =     197.017844 E_bond   =      28.487913 E_angle  =     128.541657 
E_dihed  =      32.843684 E_impro  =       1.030843 E_vdwl   =       8.509007 
E_coul   =      13.797231 E_long   =     -16.192492 Press    =    -306.706548
------------ Step           3600 ----- CPU =    0.9064626 (sec) -------------
TotEng   =     230.641208 KinEng   =      34.485931 Temp     =      95.614174 
PotEng   =     196.155277 E_bond   =      25.731765 E_angle  =     129.366117 
E_dihed  =      35.708052 E_impro  =       0.565410 E_vdwl   =       7.487543 
E_coul   =      13.489486 E_long   =     -16.193096 Press    =     297.669602
------------ Step           3700 ----- CPU =    0.9317079 (sec) -------------
TotEng   =     230.371933 KinEng   =      36.313055 Temp     =     100.679979 
PotEng   =     194.058878 E_bond   =      26.861923 E_angle  =     131.009818 
E_dihed  =      34.632741 E_impro  =       0.537101 E_vdwl   =       3.919831 
E_coul   =      13.288767 E_long   =     -16.191303 Press    =      93.045789
------------ Step           3800 ----- CPU =    0.9568155 (sec) -------------
TotEng   =     232.768319 KinEng   =      36.931936 Temp     =     102.395861 
PotEng   =     195.836384 E_bond   =      27.435150 E_angle  =     135.295750 
E_dihed  =      31.402575 E_impro  =       0.570971 E_vdwl   =       3.784523 
E_coul   =      13.538689 E_long   =     -16.191275 Press    =    -621.301427
------------ Step           3900 ----- CPU =    0.9809767 (sec) -------------
TotEng   =     236.751930 KinEng   =      39.067521 Temp     =     108.316890 
PotEng   =     197.684409 E_bond   =      25.255095 E_angle  =     132.869144 
E_dihed  =      35.426348 E_impro  =       0.743160 E_vdwl   =       6.409295 
E_coul   =      13.175162 E_long   =     -16.193796 Press    =      -7.294664
------------ Step           4000 ----- CPU =     1.006306 (sec) -------------
TotEng   =     240.052882 KinEng   =      35.385175 Temp     =      98.107379 
PotEng   =     204.667707 E_bond   =      25.819559 E_angle  =     127.794569 
E_dihed  =      39.943922 E_impro  =       0.658647 E_vdwl   =      13.284920 
E_coul   =      13.359844 E_long   =     -16.193754 Press    =     903.816470
------------ Step           4100 ----- CPU =     1.030399 (sec) -------------
TotEng   =     242.834413 KinEng   =      40.150331 Temp     =     111.319041 
PotEng   =     202.684082 E_bond   =      27.728003 E_angle  =     128.709423 
E_dihed  =      35.247042 E_impro  =       0.876054 E_vdwl   =      12.660707 
E_coul   =      13.657086 E_long   =     -16.194232 Press    =     136.358064
------------ Step           4200 ----- CPU =     1.055477 (sec) -------------
TotEng   =     245.824396 KinEng   =      44.363725 Temp     =     123.000913 
PotEng   =     201.460670 E_bond   =      31.414033 E_angle  =     131.098599 
E_dihed  =      32.419632 E_impro  =       0.579843 E_vdwl   =       8.711356 
E_coul   =      13.431771 E_long   =     -16.194564 Press    =      22.384278
------------ Step           4300 ----- CPU =     1.080704 (sec) -------------
TotEng   =     249.163848 KinEng   =      44.414570 Temp     =     123.141883 
PotEng   =     204.749278 E_bond   =      28.305829 E_angle  =     136.031184 
E_dihed  =      39.381201 E_impro  =       0.535978 E_vdwl   =       3.605095 
E_coul   =      13.083177 E_long   =     -16.193185 Press    =     -96.772896
------------ Step           4400 ----- CPU =     1.106128 (sec) -------------
TotEng   =     252.488044 KinEng   =      50.222874 Temp     =     139.245730 
PotEng   =     202.265170 E_bond   =      25.141401 E_angle  =     140.702592 
E_dihed  =      40.089619 E_impro  =       0.633203 E_vdwl   =      -1.634694 
E_coul   =      13.526992 E_long   =     -16.193943 Press    =    -992.102339
------------ Step           4500 ----- CPU =     1.131603 (sec) -------------
TotEng   =     254.131547 KinEng   =      47.362063 Temp     =     131.313973 
PotEng   =     206.769484 E_bond   =      27.473197 E_angle  =     136.320540 
E_dihed  =      35.149934 E_impro  =       1.078597 E_vdwl   =       9.539202 
E_coul   =      13.400728 E_long   =     -16.192714 Press    =    -447.027451
------------ Step           4600 ----- CPU =     1.156049 (sec) -------------
TotEng   =     255.651135 KinEng   =      47.741405 Temp     =     132.365719 
PotEng   =     207.909731 E_bond   =      29.596068 E_angle  =     134.918525 
E_dihed  =      36.525069 E_impro  =       0.681013 E_vdwl   =       9.473274 
E_coul   =      12.908765 E_long   =     -16.192984 Press    =    -236.850701
------------ Step           4700 ----- CPU =      1.18254 (sec) -------------
TotEng   =     258.695703 KinEng   =      52.085790 Temp     =     144.410771 
PotEng   =     206.609912 E_bond   =      25.064100 E_angle  =     138.154637 
E_dihed  =      37.145861 E_impro  =       1.551088 E_vdwl   =       7.571219 
E_coul   =      13.316427 E_long   =     -16.193422 Press    =     224.529491
------------ Step           4800 ----- CPU =     1.207213 (sec) -------------
TotEng   =     261.285051 KinEng   =      49.312724 Temp     =     136.722289 
PotEng   =     211.972327 E_bond   =      24.201946 E_angle  =     136.345937 
E_dihed  =      42.332618 E_impro  =       0.963434 E_vdwl   =      11.037148 
E_coul   =      13.283914 E_long   =     -16.192669 Press    =     135.881533
------------ Step           4900 ----- CPU =     1.232891 (sec) -------------
TotEng   =     265.289322 KinEng   =      54.798114 Temp     =     151.930840 
PotEng   =     210.491209 E_bond   =      23.728057 E_angle  =     144.312350 
E_dihed  =      38.356962 E_impro  =       1.082567 E_vdwl   =       5.521516 
E_coul   =      13.684248 E_long   =     -16.194491 Press    =     348.273956
------------ Step           5000 ----- CPU =     1.257788 (sec) -------------
TotEng   =     268.075659 KinEng   =      57.554808 Temp     =     159.573928 
PotEng   =     210.520851 E_bond   =      25.114274 E_angle  =     142.971280 
E_dihed  =      38.505893 E_impro  =       1.556716 E_vdwl   =       5.084604 
E_coul   =      13.480134 E_long   =     -16.192050 Press    =     -39.780270
------------ Step           5100 ----- CPU =     1.283355 (sec) -------------
TotEng   =     268.970484 KinEng   =      62.598760 Temp     =     173.558569 
PotEng   =     206.371723 E_bond   =      26.933364 E_angle  =     122.872642 
E_dihed  =      48.052105 E_impro  =       0.845830 E_vdwl   =      10.670720 
E_coul   =      13.189774 E_long   =     -16.192712 Press    =    -793.458424
------------ Step           5200 ----- CPU =     1.308813 (sec) -------------
TotEng   =     266.906563 KinEng   =      53.083279 Temp     =     147.176365 
PotEng   =     213.823284 E_bond   =      25.390893 E_angle  =     128.750938 
E_dihed  =      49.484769 E_impro  =       1.049739 E_vdwl   =      12.514917 
E_coul   =      12.822628 E_long   =     -16.190600 Press    =     396.475397
------------ Step           5300 ----- CPU =     1.334517 (sec) -------------
TotEng   =     266.967984 KinEng   =      55.530927 Temp     =     153.962606 
PotEng   =     211.437056 E_bond   =      26.681601 E_angle  =     133.879316 
E_dihed  =      43.976905 E_impro  =       0.813624 E_vdwl   =       9.321267 
E_coul   =      12.953209 E_long   =     -16.188865 Press    =     152.653771
------------ Step           5400 ----- CPU =     1.360162 (sec) -------------
TotEng   =     268.382366 KinEng   =      54.759213 Temp     =     151.822985 
PotEng   =     213.623154 E_bond   =      24.777884 E_angle  =     145.449787 
E_dihed  =      37.788584 E_impro  =       0.768341 E_vdwl   =       7.682622 
E_coul   =      13.346247 E_long   =     -16.190312 Press    =     232.481387
------------ Step           5500 ----- CPU =     1.384622 (sec) -------------
TotEng   =     270.165454 KinEng   =      62.472558 Temp     =     173.208665 
PotEng   =     207.692896 E_bond   =      24.519765 E_angle  =     141.535491 
E_dihed  =      37.447430 E_impro  =       1.263345 E_vdwl   =       5.323081 
E_coul   =      13.794348 E_long   =     -16.190563 Press    =    -614.892539
------------ Step           5600 ----- CPU =     1.411378 (sec) -------------
TotEng   =     271.887262 KinEng   =      56.270621 Temp     =     156.013447 
PotEng   =     215.616642 E_bond   =      25.683409 E_angle  =     147.017004 
E_dihed  =      46.798874 E_impro  =       1.029316 E_vdwl   =      -2.168687 
E_coul   =      13.446004 E_long   =     -16.189279 Press    =    -906.808650
------------ Step           5700 ----- CPU =     1.437027 (sec) -------------
TotEng   =     275.448875 KinEng   =      63.858329 Temp     =     177.050793 
PotEng   =     211.590546 E_bond   =      27.028160 E_angle  =     139.037606 
E_dihed  =      44.375726 E_impro  =       0.867730 E_vdwl   =       2.841285 
E_coul   =      13.629386 E_long   =     -16.189345 Press    =    -656.440433
------------ Step           5800 ----- CPU =     1.462654 (sec) -------------
TotEng   =     277.182064 KinEng   =      69.777179 Temp     =     193.461137 
PotEng   =     207.404885 E_bond   =      22.391408 E_angle  =     145.335865 
E_dihed  =      37.080277 E_impro  =       1.039612 E_vdwl   =       4.441331 
E_coul   =      13.309818 E_long   =     -16.193425 Press    =     472.251307
------------ Step           5900 ----- CPU =     1.488041 (sec) -------------
TotEng   =     274.589459 KinEng   =      72.212811 Temp     =     200.214063 
PotEng   =     202.376648 E_bond   =      20.417295 E_angle  =     145.947985 
E_dihed  =      37.933986 E_impro  =       0.641448 E_vdwl   =       0.531573 
E_coul   =      13.097175 E_long   =     -16.192815 Press    =     306.180055
------------ Step           6000 ----- CPU =     1.514091 (sec) -------------
TotEng   =     269.968686 KinEng   =      61.545605 Temp     =     170.638636 
PotEng   =     208.423082 E_bond   =      20.644637 E_angle  =     146.119176 
E_dihed  =      41.400222 E_impro  =       0.989276 E_vdwl   =       2.214254 
E_coul   =      13.248123 E_long   =     -16.192605 Press    =    -175.614943
------------ Step           6100 ----- CPU =     1.539755 (sec) -------------
TotEng   =     268.740831 KinEng   =      55.979582 Temp     =     155.206527 
PotEng   =     212.761249 E_bond   =      21.047761 E_angle  =     153.015063 
E_dihed  =      44.202028 E_impro  =       1.678267 E_vdwl   =      -4.457405 
E_coul   =      13.467590 E_long   =     -16.192055 Press    =     309.551931
------------ Step           6200 ----- CPU =     1.565223 (sec) -------------
TotEng   =     270.841998 KinEng   =      56.362228 Temp     =     156.267433 
PotEng   =     214.479770 E_bond   =      19.441009 E_angle  =     166.304630 
E_dihed  =      41.678076 E_impro  =       0.748087 E_vdwl   =     -10.831453 
E_coul   =      13.331087 E_long   =     -16.191666 Press    =     775.328927
------------ Step           6300 ----- CPU =     1.589435 (sec) -------------
TotEng   =     274.946287 KinEng   =      60.127353 Temp     =     166.706455 
PotEng   =     214.818934 E_bond   =      18.254132 E_angle  =     166.631479 
E_dihed  =      36.478988 E_impro  =       1.269858 E_vdwl   =      -5.052535 
E_coul   =      13.428560 E_long   =     -16.191548 Press    =     384.299791
------------ Step           6400 ----- CPU =     1.614941 (sec) -------------
TotEng   =     279.749760 KinEng   =      66.173051 Temp     =     183.468489 
PotEng   =     213.576709 E_bond   =      23.899810 E_angle  =     168.036604 
E_dihed  =      35.199240 E_impro  =       1.915061 E_vdwl   =     -12.846091 
E_coul   =      13.562078 E_long   =     -16.189992 Press    =   -1063.801023
------------ Step           6500 ----- CPU =     1.641772 (sec) -------------
TotEng   =     283.538507 KinEng   =      76.303608 Temp     =     211.556027 
PotEng   =     207.234899 E_bond   =      25.732288 E_angle  =     158.182033 
E_dihed  =      33.359787 E_impro  =       1.056470 E_vdwl   =      -8.586464 
E_coul   =      13.682533 E_long   =     -16.191749 Press    =   -1332.821923
------------ Step           6600 ----- CPU =     1.667659 (sec) -------------
TotEng   =     283.658491 KinEng   =      74.371447 Temp     =     206.199001 
PotEng   =     209.287045 E_bond   =      23.207796 E_angle  =     152.078062 
E_dihed  =      32.812401 E_impro  =       0.617145 E_vdwl   =       3.072180 
E_coul   =      13.690472 E_long   =     -16.191011 Press    =     551.441989
------------ Step           6700 ----- CPU =     1.693517 (sec) -------------
TotEng   =     281.474937 KinEng   =      70.265613 Temp     =     194.815348 
PotEng   =     211.209324 E_bond   =      23.768174 E_angle  =     160.380744 
E_dihed  =      38.866257 E_impro  =       1.121358 E_vdwl   =     -10.758805 
E_coul   =      14.021583 E_long   =     -16.189988 Press    =     -53.880371
------------ Step           6800 ----- CPU =     1.719561 (sec) -------------
TotEng   =     278.341261 KinEng   =      81.578194 Temp     =     226.180110 
PotEng   =     196.763067 E_bond   =      19.150446 E_angle  =     154.578241 
E_dihed  =      35.196703 E_impro  =       0.593185 E_vdwl   =     -10.016697 
E_coul   =      13.449615 E_long   =     -16.188425 Press    =      41.458972
------------ Step           6900 ----- CPU =     1.746576 (sec) -------------
TotEng   =     272.360342 KinEng   =      68.344416 Temp     =     189.488722 
PotEng   =     204.015925 E_bond   =      21.849046 E_angle  =     163.318390 
E_dihed  =      38.230970 E_impro  =       1.186517 E_vdwl   =     -17.422456 
E_coul   =      13.043278 E_long   =     -16.189817 Press    =    -268.944899
------------ Step           7000 ----- CPU =      1.77234 (sec) -------------
TotEng   =     270.005994 KinEng   =      70.760566 Temp     =     196.187631 
PotEng   =     199.245428 E_bond   =      16.951036 E_angle  =     154.309498 
E_dihed  =      37.755122 E_impro  =       1.238297 E_vdwl   =      -7.996018 
E_coul   =      13.178852 E_long   =     -16.191359 Press    =    1078.600238
------------ Step           7100 ----- CPU =      1.79659 (sec) -------------
TotEng   =     270.432601 KinEng   =      73.112262 Temp     =     202.707842 
PotEng   =     197.320339 E_bond   =      21.536763 E_angle  =     146.383688 
E_dihed  =      39.906060 E_impro  =       0.693116 E_vdwl   =      -8.568888 
E_coul   =      13.559526 E_long   =     -16.189927 Press    =    -594.022158
------------ Step           7200 ----- CPU =     1.821998 (sec) -------------
TotEng   =     273.820444 KinEng   =      77.186339 Temp     =     214.003447 
PotEng   =     196.634105 E_bond   =      21.186473 E_angle  =     151.647513 
E_dihed  =      40.416042 E_impro  =       1.550813 E_vdwl   =     -15.110591 
E_coul   =      13.136164 E_long   =     -16.192310 Press    =     279.904633
------------ Step           7300 ----- CPU =     1.847336 (sec) -------------
TotEng   =     283.390466 KinEng   =      76.661772 Temp     =     212.549057 
PotEng   =     206.728694 E_bond   =      20.511844 E_angle  =     162.626689 
E_dihed  =      43.055854 E_impro  =       0.925221 E_vdwl   =     -17.154781 
E_coul   =      12.958841 E_long   =     -16.194974 Press    =     831.208033
------------ Step           7400 ----- CPU =     1.871356 (sec) -------------
TotEng   =     292.430530 KinEng   =      84.322465 Temp     =     233.788758 
PotEng   =     208.108065 E_bond   =      23.639535 E_angle  =     153.228327 
E_dihed  =      42.326761 E_impro  =       0.717338 E_vdwl   =      -8.419609 
E_coul   =      12.812059 E_long   =     -16.196344 Press    =     132.363810
------------ Step           7500 ----- CPU =     1.896407 (sec) -------------
TotEng   =     294.935913 KinEng   =      82.649031 Temp     =     229.149069 
PotEng   =     212.286882 E_bond   =      22.519446 E_angle  =     152.675462 
E_dihed  =      40.128080 E_impro  =       1.553099 E_vdwl   =      -1.383561 
E_coul   =      12.990979 E_long   =     -16.196624 Press    =     616.909121
------------ Step           7600 ----- CPU =     1.922348 (sec) -------------
TotEng   =     295.583001 KinEng   =      88.078337 Temp     =     244.202122 
PotEng   =     207.504665 E_bond   =      19.682032 E_angle  =     148.631332 
E_dihed  =      41.709375 E_impro  =       0.400039 E_vdwl   =      -0.038381 
E_coul   =      13.319080 E_long   =     -16.198813 Press    =    1288.000234
------------ Step           7700 ----- CPU =      1.94726 (sec) -------------
TotEng   =     292.667406 KinEng   =      86.268006 Temp     =     239.182878 
PotEng   =     206.399400 E_bond   =      25.330080 E_angle  =     146.881564 
E_dihed  =      55.506661 E_impro  =       0.757792 E_vdwl   =     -18.859516 
E_coul   =      12.981395 E_long   =     -16.198577 Press    =   -1504.894274
------------ Step           7800 ----- CPU =     1.972168 (sec) -------------
TotEng   =     288.858877 KinEng   =      80.588052 Temp     =     223.434887 
PotEng   =     208.270825 E_bond   =      25.768085 E_angle  =     166.357741 
E_dihed  =      49.801547 E_impro  =       1.286324 E_vdwl   =     -32.268809 
E_coul   =      13.522541 E_long   =     -16.196605 Press    =   -1193.035368
------------ Step           7900 ----- CPU =     1.997148 (sec) -------------
TotEng   =     285.712051 KinEng   =      84.137075 Temp     =     233.274753 
PotEng   =     201.574976 E_bond   =      21.673498 E_angle  =     150.909028 
E_dihed  =      47.540229 E_impro  =       0.886412 E_vdwl   =     -16.494796 
E_coul   =      13.256236 E_long   =     -16.195631 Press    =     151.821863
------------ Step           8000 ----- CPU =       2.0224 (sec) -------------
TotEng   =     283.410233 KinEng   =      77.308051 Temp     =     214.340902 
PotEng   =     206.102182 E_bond   =      18.429275 E_angle  =     160.996652 
E_dihed  =      47.650345 E_impro  =       1.135145 E_vdwl   =     -19.409872 
E_coul   =      13.495446 E_long   =     -16.194808 Press    =    -651.992854
------------ Step           8100 ----- CPU =     2.047193 (sec) -------------
TotEng   =     284.583707 KinEng   =      81.312475 Temp     =     225.443391 
PotEng   =     203.271231 E_bond   =      18.846720 E_angle  =     158.958369 
E_dihed  =      48.019368 E_impro  =       1.550187 E_vdwl   =     -21.042995 
E_coul   =      13.135100 E_long   =     -16.195518 Press    =    -501.320234
------------ Step           8200 ----- CPU =     2.071627 (sec) -------------
TotEng   =     292.302942 KinEng   =      93.505416 Temp     =     259.249003 
PotEng   =     198.797527 E_bond   =      21.214333 E_angle  =     154.127947 
E_dihed  =      46.428252 E_impro  =       0.705654 E_vdwl   =     -20.520178 
E_coul   =      13.036702 E_long   =     -16.195183 Press    =    -427.390507
------------ Step           8300 ----- CPU =     2.096153 (sec) -------------
TotEng   =     300.244940 KinEng   =     103.384915 Temp     =     286.640468 
PotEng   =     196.860025 E_bond   =      21.580057 E_angle  =     155.485050 
E_dihed  =      53.374015 E_impro  =       1.302904 E_vdwl   =     -31.500441 
E_coul   =      12.815812 E_long   =     -16.197372 Press    =     756.825750
------------ Step           8400 ----- CPU =     2.120958 (sec) -------------
TotEng   =     303.264349 KinEng   =     101.763626 Temp     =     282.145352 
PotEng   =     201.500723 E_bond   =      21.512777 E_angle  =     140.201432 
E_dihed  =      58.112648 E_impro  =       1.782940 E_vdwl   =     -16.906778 
E_coul   =      12.996007 E_long   =     -16.198303 Press    =    -681.731249
------------ Step           8500 ----- CPU =     2.145792 (sec) -------------
TotEng   =     302.408093 KinEng   =      93.198178 Temp     =     258.397168 
PotEng   =     209.209915 E_bond   =      18.184983 E_angle  =     155.579398 
E_dihed  =      51.867058 E_impro  =       1.222964 E_vdwl   =     -14.554702 
E_coul   =      13.107878 E_long   =     -16.197665 Press    =     793.903847
------------ Step           8600 ----- CPU =     2.170528 (sec) -------------
TotEng   =     298.561632 KinEng   =     102.154235 Temp     =     283.228338 
PotEng   =     196.407397 E_bond   =      16.963898 E_angle  =     155.260365 
E_dihed  =      41.655568 E_impro  =       3.172624 E_vdwl   =     -17.706431 
E_coul   =      13.260290 E_long   =     -16.198917 Press    =    1630.854072
------------ Step           8700 ----- CPU =      2.19527 (sec) -------------
TotEng   =     285.636169 KinEng   =      95.844152 Temp     =     265.733280 
PotEng   =     189.792017 E_bond   =      26.180624 E_angle  =     150.987355 
E_dihed  =      37.146801 E_impro  =       1.640979 E_vdwl   =     -23.290193 
E_coul   =      13.324409 E_long   =     -16.197958 Press    =   -1413.808353
------------ Step           8800 ----- CPU =     2.220328 (sec) -------------
TotEng   =     275.826342 KinEng   =      83.547229 Temp     =     231.639371 
PotEng   =     192.279113 E_bond   =      24.803940 E_angle  =     157.550213 
E_dihed  =      38.158802 E_impro  =       1.713645 E_vdwl   =     -26.891652 
E_coul   =      13.138177 E_long   =     -16.194013 Press    =   -1255.174752
------------ Step           8900 ----- CPU =     2.245303 (sec) -------------
TotEng   =     274.527767 KinEng   =      84.300238 Temp     =     233.727131 
PotEng   =     190.227529 E_bond   =      20.931713 E_angle  =     158.728339 
E_dihed  =      33.444712 E_impro  =       1.778685 E_vdwl   =     -21.816875 
E_coul   =      13.354174 E_long   =     -16.193219 Press    =    -785.587884
------------ Step           9000 ----- CPU =     2.271218 (sec) -------------
TotEng   =     278.170299 KinEng   =      86.806111 Temp     =     240.674806 
PotEng   =     191.364188 E_bond   =      15.978722 E_angle  =     157.650656 
E_dihed  =      38.240325 E_impro  =       2.187360 E_vdwl   =     -19.979325 
E_coul   =      13.473597 E_long   =     -16.187146 Press    =     850.794233
------------ Step           9100 ----- CPU =     2.295969 (sec) -------------
TotEng   =     285.753779 KinEng   =      89.156887 Temp     =     247.192462 
PotEng   =     196.596892 E_bond   =      19.818387 E_angle  =     158.684759 
E_dihed  =      40.502788 E_impro  =       2.069966 E_vdwl   =     -21.807783 
E_coul   =      13.511492 E_long   =     -16.182717 Press    =    -202.133009
------------ Step           9200 ----- CPU =     2.321592 (sec) -------------
TotEng   =     294.838791 KinEng   =     103.654968 Temp     =     287.389203 
PotEng   =     191.183824 E_bond   =      27.106255 E_angle  =     154.999901 
E_dihed  =      36.939171 E_impro  =       1.191264 E_vdwl   =     -26.489122 
E_coul   =      13.623568 E_long   =     -16.187213 Press    =   -1409.427789
------------ Step           9300 ----- CPU =     2.347282 (sec) -------------
TotEng   =     300.841279 KinEng   =      93.517901 Temp     =     259.283619 
PotEng   =     207.323377 E_bond   =      23.046771 E_angle  =     175.819828 
E_dihed  =      36.219360 E_impro  =       1.471070 E_vdwl   =     -26.178079 
E_coul   =      13.136876 E_long   =     -16.192449 Press    =     638.191689
------------ Step           9400 ----- CPU =     2.371753 (sec) -------------
TotEng   =     307.167049 KinEng   =      98.826925 Temp     =     274.003184 
PotEng   =     208.340124 E_bond   =      17.248211 E_angle  =     174.457789 
E_dihed  =      36.544184 E_impro  =       0.300638 E_vdwl   =     -17.538147 
E_coul   =      13.517886 E_long   =     -16.190438 Press    =    1588.344015
------------ Step           9500 ----- CPU =     2.396174 (sec) -------------
TotEng   =     314.392038 KinEng   =     111.567467 Temp     =     309.327052 
PotEng   =     202.824571 E_bond   =      19.793612 E_angle  =     157.856235 
E_dihed  =      37.653699 E_impro  =       1.412110 E_vdwl   =     -11.607219 
E_coul   =      13.906061 E_long   =     -16.189928 Press    =     610.874828
------------ Step           9600 ----- CPU =     2.421481 (sec) -------------
TotEng   =     316.653432 KinEng   =     115.447016 Temp     =     320.083317 
PotEng   =     201.206416 E_bond   =      36.748132 E_angle  =     160.630466 
E_dihed  =      39.165218 E_impro  =       1.618549 E_vdwl   =     -34.593161 
E_coul   =      13.825769 E_long   =     -16.188557 Press    =   -2743.155465
------------ Step           9700 ----- CPU =     2.446793 (sec) -------------
TotEng   =     313.497539 KinEng   =     105.902998 Temp     =     293.621993 
PotEng   =     207.594541 E_bond   =      28.058725 E_angle  =     157.883050 
E_dihed  =      44.208194 E_impro  =       3.940301 E_vdwl   =     -23.944429 
E_coul   =      13.638437 E_long   =     -16.189737 Press    =    -144.492901
------------ Step           9800 ----- CPU =     2.471101 (sec) -------------
TotEng   =     309.851653 KinEng   =      92.958498 Temp     =     257.732643 
PotEng   =     216.893154 E_bond   =      17.634675 E_angle  =     163.648529 
E_dihed  =      41.818406 E_impro  =       3.252862 E_vdwl   =      -6.634317 
E_coul   =      13.363012 E_long   =     -16.190012 Press    =    2371.216213
------------ Step           9900 ----- CPU =     2.495039 (sec) -------------
TotEng   =     310.697865 KinEng   =      88.608763 Temp     =     245.672759 
PotEng   =     222.089102 E_bond   =      25.987019 E_angle  =     158.648867 
E_dihed  =      48.334904 E_impro  =       2.964125 E_vdwl   =     -10.836086 
E_coul   =      13.180091 E_long   =     -16.189820 Press    =      27.860885
------------ Step          10000 ----- CPU =      2.51905 (sec) -------------
TotEng   =     320.628447 KinEng   =     111.888654 Temp     =     310.217561 
PotEng   =     208.739792 E_bond   =      23.828554 E_angle  =     167.695572 
E_dihed  =      44.914115 E_impro  =       3.568078 E_vdwl   =     -28.358039 
E_coul   =      13.281861 E_long   =     -16.190350 Press    =     -15.391187
Loop time of 2.51908 on 1 procs for 10000 steps with 122 atoms

Performance: 171.491 ns/day, 0.140 hours/ns, 3969.704 timesteps/s, 484.304 katom-step/s
99.7% CPU use with 1 MPI tasks x 1 OpenMP threads

MPI task timing breakdown:
Section |  min time  |  avg time  |  max time  |%varavg| %total
---------------------------------------------------------------
Pair    | 1.9        | 1.9        | 1.9        |   0.0 | 75.43
Bond    | 0.30365    | 0.30365    | 0.30365    |   0.0 | 12.05
Kspace  | 0.13622    | 0.13622    | 0.13622    |   0.0 |  5.41
Neigh   | 0.079689   | 0.079689   | 0.079689   |   0.0 |  3.16
Comm    | 0.067023   | 0.067023   | 0.067023   |   0.0 |  2.66
Output  | 0.0038109  | 0.0038109  | 0.0038109  |   0.0 |  0.15
Modify  | 0.020646   | 0.020646   | 0.020646   |   0.0 |  0.82
Other   |            | 0.008004   |            |       |  0.32

Nlocal:            122 ave         122 max         122 min
Histogram: 1 0 0 0 0 0 0 0 0 0
Nghost:           1671 ave        1671 max        1671 min
Histogram: 1 0 0 0 0 0 0 0 0 0
Neighs:          14488 ave       14488 max       14488 min
Histogram: 1 0 0 0 0 0 0 0 0 0

Total # of neighbors = 14488
Ave neighs/atom = 118.7541
Ave special neighs/atom = 10.967213
Neighbor list builds = 90
Dangerous builds = 0
unfix                4
undump               1

fix                  4 all nvt temp 300 300 100
fix                  freeze oleic_acid setforce 0.0 0.0 0.0
fix                  1 all gcmc 1 0 100 0 1234567 300.0 0 5 mol 69 full_energy mcmoves 0 1 1
dump                 2 all custom 10 ${sname}.simple_mc.lammpstrj id type xu yu zu vx vy vz
dump                 2 all custom 10 simplified_mc.simple_mc.lammpstrj id type xu yu zu vx vy vz
run                  10000
Ewald initialization ...
  using 12-bit tables for long-range coulomb (src/kspace.cpp:342)
  G vector (1/distance) = 0.091315817
  estimated absolute RMS force accuracy = 0.034067589
  estimated relative force accuracy = 0.00010259353
  KSpace vectors: actual max1d max3d = 3 1 13
                  kxmax kymax kzmax  = 1 1 1
Generated 28 of 28 mixed pair_coeff terms from geometric mixing rule
0 atoms in group FixGCMC:gcmc_exclusion_group:1
0 atoms in group FixGCMC:rotation_gas_atoms:1
WARNING: Fix gcmc is being applied to the default group all (src/MC/fix_gcmc.cpp:672)
WARNING: Neighbor exclusions used with KSpace solver may give inconsistent Coulombic energies (src/neighbor.cpp:639)
Per MPI rank memory allocation (min/avg/max) = 32.92 | 32.92 | 32.92 Mbytes
------------ Step          10000 ----- CPU =            0 (sec) -------------
TotEng   =     320.628447 KinEng   =     111.888654 Temp     =     310.217561 
PotEng   =     208.739792 E_bond   =      23.828554 E_angle  =     167.695572 
E_dihed  =      44.914115 E_impro  =       3.568078 E_vdwl   =     -28.358039 
E_coul   =      13.281861 E_long   =     -16.190350 Press    =     -15.391187
------------ Step          10100 ----- CPU =     17.40883 (sec) -------------
TotEng   =     315.906966 KinEng   =     105.077683 Temp     =     291.333762 
PotEng   =     210.829282 E_bond   =      22.929938 E_angle  =     185.291569 
E_dihed  =      32.559472 E_impro  =       2.638920 E_vdwl   =     -29.770815 
E_coul   =      13.369226 E_long   =     -16.189027 Press    =     611.691847
------------ Step          10200 ----- CPU =     34.82012 (sec) -------------
TotEng   =     314.880500 KinEng   =     107.785046 Temp     =     298.840076 
PotEng   =     207.095454 E_bond   =      26.488307 E_angle  =     183.924196 
E_dihed  =      40.590569 E_impro  =       1.858245 E_vdwl   =     -42.528143 
E_coul   =      12.948425 E_long   =     -16.186145 Press    =   -1180.754668
------------ Step          10300 ----- CPU =       51.959 (sec) -------------
TotEng   =     320.338961 KinEng   =     110.659394 Temp     =     306.809367 
PotEng   =     209.679567 E_bond   =      33.831663 E_angle  =     170.275113 
E_dihed  =      34.287332 E_impro  =       1.156994 E_vdwl   =     -26.651137 
E_coul   =      12.969982 E_long   =     -16.190379 Press    =    -809.201513
------------ Step          10400 ----- CPU =     68.87621 (sec) -------------
TotEng   =     329.278847 KinEng   =     107.302421 Temp     =     297.501973 
PotEng   =     221.976425 E_bond   =      28.930408 E_angle  =     197.372895 
E_dihed  =      38.760885 E_impro  =       2.218318 E_vdwl   =     -42.577158 
E_coul   =      13.463801 E_long   =     -16.192723 Press    =     307.624187
------------ Step          10500 ----- CPU =     85.76057 (sec) -------------
TotEng   =     336.715796 KinEng   =     127.455813 Temp     =     353.378379 
PotEng   =     209.259984 E_bond   =      24.881260 E_angle  =     174.247765 
E_dihed  =      43.063700 E_impro  =       2.402345 E_vdwl   =     -32.058183 
E_coul   =      12.912474 E_long   =     -16.189377 Press    =    -188.875583
------------ Step          10600 ----- CPU =     102.6447 (sec) -------------
TotEng   =     341.496103 KinEng   =     119.187586 Temp     =     330.454258 
PotEng   =     222.308517 E_bond   =      37.685637 E_angle  =     169.327813 
E_dihed  =      41.441246 E_impro  =       2.261856 E_vdwl   =     -25.591225 
E_coul   =      13.370839 E_long   =     -16.187649 Press    =    -192.827657
------------ Step          10700 ----- CPU =     120.3635 (sec) -------------
TotEng   =     333.253305 KinEng   =     117.078454 Temp     =     324.606571 
PotEng   =     216.174851 E_bond   =      39.129099 E_angle  =     169.623101 
E_dihed  =      40.785256 E_impro  =       1.716360 E_vdwl   =     -32.314979 
E_coul   =      13.434293 E_long   =     -16.198280 Press    =    -569.807190
------------ Step          10800 ----- CPU =     138.6387 (sec) -------------
TotEng   =     322.233687 KinEng   =     111.096682 Temp     =     308.021772 
PotEng   =     211.137005 E_bond   =      22.851802 E_angle  =     175.314657 
E_dihed  =      42.061054 E_impro  =       2.696933 E_vdwl   =     -28.291058 
E_coul   =      12.705438 E_long   =     -16.201821 Press    =     446.780196
------------ Step          10900 ----- CPU =     156.8945 (sec) -------------
TotEng   =     315.237718 KinEng   =     111.166663 Temp     =     308.215799 
PotEng   =     204.071055 E_bond   =      29.477149 E_angle  =     160.767563 
E_dihed  =      39.635752 E_impro  =       2.230428 E_vdwl   =     -24.636259 
E_coul   =      12.792902 E_long   =     -16.196479 Press    =     630.448427
------------ Step          11000 ----- CPU =     175.0066 (sec) -------------
TotEng   =     312.506183 KinEng   =     106.218040 Temp     =     294.495466 
PotEng   =     206.288143 E_bond   =      39.852847 E_angle  =     141.806338 
E_dihed  =      37.201426 E_impro  =       2.549519 E_vdwl   =     -11.401136 
E_coul   =      12.483799 E_long   =     -16.204650 Press    =    -274.651613
------------ Step          11100 ----- CPU =     192.1709 (sec) -------------
TotEng   =     306.934336 KinEng   =      99.312996 Temp     =     275.350843 
PotEng   =     207.621341 E_bond   =      39.135533 E_angle  =     172.339734 
E_dihed  =      33.636491 E_impro  =       1.887923 E_vdwl   =     -36.857554 
E_coul   =      13.674548 E_long   =     -16.195333 Press    =    -304.418114
------------ Step          11200 ----- CPU =     208.3668 (sec) -------------
TotEng   =     310.186626 KinEng   =     104.714124 Temp     =     290.325773 
PotEng   =     205.472502 E_bond   =      46.672601 E_angle  =     150.584013 
E_dihed  =      36.511704 E_impro  =       0.812109 E_vdwl   =     -26.835021 
E_coul   =      13.923522 E_long   =     -16.196427 Press    =   -2254.152292
------------ Step          11300 ----- CPU =     224.6001 (sec) -------------
TotEng   =     313.088388 KinEng   =     104.914527 Temp     =     290.881402 
PotEng   =     208.173861 E_bond   =      34.269010 E_angle  =     167.716780 
E_dihed  =      39.360249 E_impro  =       1.191232 E_vdwl   =     -32.023653 
E_coul   =      13.855053 E_long   =     -16.194809 Press    =    -393.131291
------------ Step          11400 ----- CPU =     241.2054 (sec) -------------
TotEng   =     318.843215 KinEng   =     102.953833 Temp     =     285.445268 
PotEng   =     215.889382 E_bond   =      29.985174 E_angle  =     172.725149 
E_dihed  =      38.721345 E_impro  =       2.714380 E_vdwl   =     -25.703817 
E_coul   =      13.641356 E_long   =     -16.194205 Press    =    1755.043591
------------ Step          11500 ----- CPU =      258.464 (sec) -------------
TotEng   =     330.119033 KinEng   =     105.794028 Temp     =     293.319867 
PotEng   =     224.325005 E_bond   =      45.326500 E_angle  =     168.161063 
E_dihed  =      34.542405 E_impro  =       1.792874 E_vdwl   =     -23.068023 
E_coul   =      13.768871 E_long   =     -16.198685 Press    =   -1151.104148
------------ Step          11600 ----- CPU =     276.3452 (sec) -------------
TotEng   =     334.030640 KinEng   =     109.065665 Temp     =     302.390664 
PotEng   =     224.964976 E_bond   =      39.305785 E_angle  =     194.442696 
E_dihed  =      37.058097 E_impro  =       1.519193 E_vdwl   =     -45.196356 
E_coul   =      14.032727 E_long   =     -16.197168 Press    =    -654.216020
------------ Step          11700 ----- CPU =     293.8138 (sec) -------------
TotEng   =     340.565158 KinEng   =     120.260917 Temp     =     333.430128 
PotEng   =     220.304241 E_bond   =      32.014283 E_angle  =     167.219802 
E_dihed  =      32.800869 E_impro  =       3.029269 E_vdwl   =     -12.655570 
E_coul   =      14.095957 E_long   =     -16.200369 Press    =     850.991369
------------ Step          11800 ----- CPU =      311.001 (sec) -------------
TotEng   =     332.639909 KinEng   =     115.933593 Temp     =     321.432380 
PotEng   =     216.706316 E_bond   =      41.215168 E_angle  =     171.902542 
E_dihed  =      31.964051 E_impro  =       2.865069 E_vdwl   =     -28.408405 
E_coul   =      13.365562 E_long   =     -16.197672 Press    =    -861.923790
------------ Step          11900 ----- CPU =     328.4549 (sec) -------------
TotEng   =     323.386899 KinEng   =     117.844516 Temp     =     326.730521 
PotEng   =     205.542383 E_bond   =      37.477830 E_angle  =     171.157991 
E_dihed  =      36.328663 E_impro  =       1.600323 E_vdwl   =     -37.758865 
E_coul   =      12.934219 E_long   =     -16.197777 Press    =    -451.730280
------------ Step          12000 ----- CPU =     345.9888 (sec) -------------
TotEng   =     306.331203 KinEng   =     103.958679 Temp     =     288.231259 
PotEng   =     202.372524 E_bond   =      32.569436 E_angle  =     175.483226 
E_dihed  =      39.881598 E_impro  =       0.903951 E_vdwl   =     -44.190640 
E_coul   =      13.923888 E_long   =     -16.198934 Press    =    -969.668681
------------ Step          12100 ----- CPU =     363.5447 (sec) -------------
TotEng   =     300.669696 KinEng   =     104.108950 Temp     =     288.647896 
PotEng   =     196.560745 E_bond   =      35.421392 E_angle  =     165.918181 
E_dihed  =      39.926214 E_impro  =       3.423773 E_vdwl   =     -45.453028 
E_coul   =      13.528254 E_long   =     -16.204041 Press    =    -409.042775
------------ Step          12200 ----- CPU =     381.4437 (sec) -------------
TotEng   =     301.349472 KinEng   =     111.870185 Temp     =     310.166355 
PotEng   =     189.479286 E_bond   =      35.793804 E_angle  =     147.812786 
E_dihed  =      40.459412 E_impro  =       2.322317 E_vdwl   =     -33.853278 
E_coul   =      13.150040 E_long   =     -16.205794 Press    =    1149.569910
------------ Step          12300 ----- CPU =     399.1289 (sec) -------------
TotEng   =     304.345146 KinEng   =     110.224674 Temp     =     305.604081 
PotEng   =     194.120472 E_bond   =      25.460592 E_angle  =     161.033400 
E_dihed  =      41.696747 E_impro  =       1.781800 E_vdwl   =     -32.648509 
E_coul   =      12.997027 E_long   =     -16.200585 Press    =    1789.630660
------------ Step          12400 ----- CPU =     416.2816 (sec) -------------
TotEng   =     305.071627 KinEng   =     107.440110 Temp     =     297.883723 
PotEng   =     197.631517 E_bond   =      39.189817 E_angle  =     167.070527 
E_dihed  =      40.556952 E_impro  =       1.459927 E_vdwl   =     -47.878490 
E_coul   =      13.432712 E_long   =     -16.199928 Press    =    -213.162731
------------ Step          12500 ----- CPU =     433.6442 (sec) -------------
TotEng   =     303.133597 KinEng   =     108.573990 Temp     =     301.027467 
PotEng   =     194.559607 E_bond   =      31.144037 E_angle  =     177.956835 
E_dihed  =      41.044551 E_impro  =       2.091187 E_vdwl   =     -54.585991 
E_coul   =      13.107859 E_long   =     -16.198871 Press    =   -1166.530058
------------ Step          12600 ----- CPU =     451.1334 (sec) -------------
TotEng   =     306.069196 KinEng   =     104.778552 Temp     =     290.504404 
PotEng   =     201.290644 E_bond   =      25.802869 E_angle  =     181.307975 
E_dihed  =      45.494330 E_impro  =       2.529112 E_vdwl   =     -50.107496 
E_coul   =      12.461870 E_long   =     -16.198016 Press    =      90.578231
------------ Step          12700 ----- CPU =     468.5859 (sec) -------------
TotEng   =     308.352477 KinEng   =     105.143581 Temp     =     291.516468 
PotEng   =     203.208896 E_bond   =      34.006633 E_angle  =     167.207173 
E_dihed  =      41.398213 E_impro  =       3.169807 E_vdwl   =     -39.132127 
E_coul   =      12.758691 E_long   =     -16.199494 Press    =     208.740434
------------ Step          12800 ----- CPU =     485.8687 (sec) -------------
TotEng   =     310.013761 KinEng   =     111.601649 Temp     =     309.421822 
PotEng   =     198.412112 E_bond   =      31.255422 E_angle  =     173.697700 
E_dihed  =      37.091174 E_impro  =       5.135053 E_vdwl   =     -45.840155 
E_coul   =      13.273524 E_long   =     -16.200606 Press    =    -518.385604
------------ Step          12900 ----- CPU =     502.9734 (sec) -------------
TotEng   =     313.227684 KinEng   =     112.882329 Temp     =     312.972580 
PotEng   =     200.345354 E_bond   =      31.323192 E_angle  =     166.197752 
E_dihed  =      41.087859 E_impro  =       2.673855 E_vdwl   =     -37.735708 
E_coul   =      13.001985 E_long   =     -16.203581 Press    =     327.419467
------------ Step          13000 ----- CPU =     520.1654 (sec) -------------
TotEng   =     313.972487 KinEng   =     114.476833 Temp     =     317.393431 
PotEng   =     199.495653 E_bond   =      24.929192 E_angle  =     172.533755 
E_dihed  =      38.792103 E_impro  =       2.339392 E_vdwl   =     -35.629297 
E_coul   =      12.733594 E_long   =     -16.203085 Press    =    2137.676358
------------ Step          13100 ----- CPU =     537.4024 (sec) -------------
TotEng   =     312.711327 KinEng   =     111.730353 Temp     =     309.778660 
PotEng   =     200.980974 E_bond   =      39.526479 E_angle  =     178.078003 
E_dihed  =      34.027380 E_impro  =       2.079320 E_vdwl   =     -49.599098 
E_coul   =      13.070411 E_long   =     -16.201521 Press    =   -2059.276203
------------ Step          13200 ----- CPU =      554.778 (sec) -------------
TotEng   =     306.560787 KinEng   =     112.872866 Temp     =     312.946343 
PotEng   =     193.687921 E_bond   =      35.637533 E_angle  =     161.901112 
E_dihed  =      39.724640 E_impro  =       1.601337 E_vdwl   =     -42.080385 
E_coul   =      13.105968 E_long   =     -16.202285 Press    =     861.326794
------------ Step          13300 ----- CPU =     572.6392 (sec) -------------
TotEng   =     298.165712 KinEng   =     103.745949 Temp     =     287.641455 
PotEng   =     194.419763 E_bond   =      33.070381 E_angle  =     172.935305 
E_dihed  =      37.855641 E_impro  =       3.153909 E_vdwl   =     -49.924666 
E_coul   =      13.532764 E_long   =     -16.203571 Press    =     329.221305
------------ Step          13400 ----- CPU =     590.7679 (sec) -------------
TotEng   =     292.771224 KinEng   =      94.174825 Temp     =     261.104978 
PotEng   =     198.596399 E_bond   =      37.309390 E_angle  =     170.866315 
E_dihed  =      34.987728 E_impro  =       2.088551 E_vdwl   =     -43.983868 
E_coul   =      13.531637 E_long   =     -16.203354 Press    =   -1601.269829
------------ Step          13500 ----- CPU =     608.4976 (sec) -------------
TotEng   =     292.074765 KinEng   =     101.548142 Temp     =     281.547911 
PotEng   =     190.526623 E_bond   =      30.394841 E_angle  =     184.575377 
E_dihed  =      34.633305 E_impro  =       1.019720 E_vdwl   =     -57.296894 
E_coul   =      13.404069 E_long   =     -16.203796 Press    =    -582.726991
------------ Step          13600 ----- CPU =     626.3939 (sec) -------------
TotEng   =     297.768308 KinEng   =     105.058612 Temp     =     291.280884 
PotEng   =     192.709697 E_bond   =      31.135293 E_angle  =     177.809810 
E_dihed  =      36.989273 E_impro  =       1.161652 E_vdwl   =     -51.446042 
E_coul   =      13.262538 E_long   =     -16.202827 Press    =    -702.923229
------------ Step          13700 ----- CPU =     644.1185 (sec) -------------
TotEng   =     295.763536 KinEng   =     103.479353 Temp     =     286.902303 
PotEng   =     192.284182 E_bond   =      30.288072 E_angle  =     170.808685 
E_dihed  =      31.316827 E_impro  =       2.486828 E_vdwl   =     -39.623886 
E_coul   =      13.204964 E_long   =     -16.197308 Press    =    -553.060238
------------ Step          13800 ----- CPU =     662.0077 (sec) -------------
TotEng   =     307.778806 KinEng   =     105.104836 Temp     =     291.409045 
PotEng   =     202.673970 E_bond   =      37.463734 E_angle  =     182.356808 
E_dihed  =      34.790709 E_impro  =       2.663339 E_vdwl   =     -51.340661 
E_coul   =      12.940365 E_long   =     -16.200325 Press    =     747.158778
------------ Step          13900 ----- CPU =     679.5742 (sec) -------------
TotEng   =     314.603648 KinEng   =     127.461520 Temp     =     353.394203 
PotEng   =     187.142128 E_bond   =      30.899684 E_angle  =     169.278057 
E_dihed  =      35.844636 E_impro  =       2.920581 E_vdwl   =     -48.318314 
E_coul   =      12.715559 E_long   =     -16.198075 Press    =     268.992980
------------ Step          14000 ----- CPU =     696.5421 (sec) -------------
TotEng   =     316.723717 KinEng   =     127.610298 Temp     =     353.806697 
PotEng   =     189.113419 E_bond   =      36.005869 E_angle  =     181.636189 
E_dihed  =      34.032868 E_impro  =       2.675223 E_vdwl   =     -62.123167 
E_coul   =      13.083604 E_long   =     -16.197167 Press    =    -292.592061
------------ Step          14100 ----- CPU =     712.7399 (sec) -------------
TotEng   =     313.343909 KinEng   =     120.369549 Temp     =     333.731317 
PotEng   =     192.974360 E_bond   =      31.965477 E_angle  =     183.601409 
E_dihed  =      29.979471 E_impro  =       1.674020 E_vdwl   =     -51.642302 
E_coul   =      13.597605 E_long   =     -16.201320 Press    =     158.044603
------------ Step          14200 ----- CPU =     729.0174 (sec) -------------
TotEng   =     305.865600 KinEng   =     106.957793 Temp     =     296.546471 
PotEng   =     198.907807 E_bond   =      36.099735 E_angle  =     187.819330 
E_dihed  =      32.000473 E_impro  =       1.986954 E_vdwl   =     -56.215901 
E_coul   =      13.417982 E_long   =     -16.200765 Press    =   -1991.365065
------------ Step          14300 ----- CPU =     745.1938 (sec) -------------
TotEng   =     303.245376 KinEng   =     101.509867 Temp     =     281.441792 
PotEng   =     201.735509 E_bond   =      40.252447 E_angle  =     187.112532 
E_dihed  =      34.463437 E_impro  =       4.394056 E_vdwl   =     -61.407777 
E_coul   =      13.124331 E_long   =     -16.203517 Press    =    -299.393238
------------ Step          14400 ----- CPU =     761.5407 (sec) -------------
TotEng   =     299.752791 KinEng   =     101.398666 Temp     =     281.133480 
PotEng   =     198.354125 E_bond   =      36.395822 E_angle  =     184.379517 
E_dihed  =      34.431400 E_impro  =       2.332156 E_vdwl   =     -56.472657 
E_coul   =      13.488466 E_long   =     -16.200579 Press    =   -1206.933273
------------ Step          14500 ----- CPU =     778.0875 (sec) -------------
TotEng   =     300.564120 KinEng   =     113.801939 Temp     =     315.522251 
PotEng   =     186.762180 E_bond   =      29.126748 E_angle  =     193.150977 
E_dihed  =      33.317179 E_impro  =       2.703557 E_vdwl   =     -68.504231 
E_coul   =      13.168324 E_long   =     -16.200373 Press    =     126.306981
------------ Step          14600 ----- CPU =     794.2607 (sec) -------------
TotEng   =     298.895869 KinEng   =     116.658728 Temp     =     323.442857 
PotEng   =     182.237141 E_bond   =      32.276965 E_angle  =     176.151519 
E_dihed  =      36.081088 E_impro  =       1.230826 E_vdwl   =     -60.515376 
E_coul   =      13.211744 E_long   =     -16.199624 Press    =     323.078221
------------ Step          14700 ----- CPU =     810.3934 (sec) -------------
TotEng   =     294.465849 KinEng   =     113.757570 Temp     =     315.399234 
PotEng   =     180.708279 E_bond   =      40.113477 E_angle  =     164.675126 
E_dihed  =      38.905665 E_impro  =       1.404490 E_vdwl   =     -61.506718 
E_coul   =      13.317556 E_long   =     -16.201318 Press    =   -2194.216869
------------ Step          14800 ----- CPU =     826.7349 (sec) -------------
TotEng   =     284.243006 KinEng   =     104.544862 Temp     =     289.856484 
PotEng   =     179.698144 E_bond   =      25.888985 E_angle  =     164.037031 
E_dihed  =      42.419063 E_impro  =       3.275607 E_vdwl   =     -53.140421 
E_coul   =      13.419270 E_long   =     -16.201390 Press    =    1855.855461
------------ Step          14900 ----- CPU =     843.0005 (sec) -------------
TotEng   =     274.922355 KinEng   =      93.484681 Temp     =     259.191515 
PotEng   =     181.437673 E_bond   =      32.000824 E_angle  =     166.365066 
E_dihed  =      40.417830 E_impro  =       2.262886 E_vdwl   =     -56.462300 
E_coul   =      13.055266 E_long   =     -16.201899 Press    =     -77.727870
------------ Step          15000 ----- CPU =     859.4051 (sec) -------------
TotEng   =     273.024236 KinEng   =     104.447438 Temp     =     289.586371 
PotEng   =     168.576799 E_bond   =      32.831582 E_angle  =     159.188943 
E_dihed  =      36.187539 E_impro  =       1.585026 E_vdwl   =     -58.168609 
E_coul   =      13.151400 E_long   =     -16.199083 Press    =    -552.689098
------------ Step          15100 ----- CPU =     875.7674 (sec) -------------
TotEng   =     276.045961 KinEng   =     100.891173 Temp     =     279.726428 
PotEng   =     175.154788 E_bond   =      29.812056 E_angle  =     160.542002 
E_dihed  =      44.893128 E_impro  =       0.916757 E_vdwl   =     -57.462945 
E_coul   =      12.656156 E_long   =     -16.202366 Press    =     699.524123
------------ Step          15200 ----- CPU =     891.7501 (sec) -------------
TotEng   =     279.816991 KinEng   =      94.339800 Temp     =     261.562380 
PotEng   =     185.477191 E_bond   =      33.462162 E_angle  =     171.313512 
E_dihed  =      42.323653 E_impro  =       1.274669 E_vdwl   =     -59.356444 
E_coul   =      12.662549 E_long   =     -16.202911 Press    =   -1703.204861
------------ Step          15300 ----- CPU =     907.5634 (sec) -------------
TotEng   =     285.979469 KinEng   =     115.934423 Temp     =     321.434682 
PotEng   =     170.045046 E_bond   =      27.090442 E_angle  =     161.652441 
E_dihed  =      38.166249 E_impro  =       1.629563 E_vdwl   =     -55.365231 
E_coul   =      13.070462 E_long   =     -16.198881 Press    =    1120.361356
------------ Step          15400 ----- CPU =     923.5315 (sec) -------------
TotEng   =     290.807283 KinEng   =     110.891190 Temp     =     307.452035 
PotEng   =     179.916093 E_bond   =      31.895484 E_angle  =     161.490204 
E_dihed  =      39.825431 E_impro  =       3.005048 E_vdwl   =     -53.467643 
E_coul   =      13.366169 E_long   =     -16.198600 Press    =     623.267441
------------ Step          15500 ----- CPU =     939.4233 (sec) -------------
TotEng   =     289.095900 KinEng   =     101.136216 Temp     =     280.405823 
PotEng   =     187.959684 E_bond   =      37.265823 E_angle  =     181.702462 
E_dihed  =      39.117403 E_impro  =       0.876880 E_vdwl   =     -68.113290 
E_coul   =      13.308593 E_long   =     -16.198188 Press    =    -756.341449
------------ Step          15600 ----- CPU =     955.3629 (sec) -------------
TotEng   =     294.276196 KinEng   =     106.276793 Temp     =     294.658361 
PotEng   =     187.999402 E_bond   =      33.053747 E_angle  =     183.434243 
E_dihed  =      41.589876 E_impro  =       0.969327 E_vdwl   =     -68.008425 
E_coul   =      13.159231 E_long   =     -16.198596 Press    =    -141.920181
------------ Step          15700 ----- CPU =     971.5154 (sec) -------------
TotEng   =     291.130271 KinEng   =     100.496240 Temp     =     278.631454 
PotEng   =     190.634031 E_bond   =      35.779337 E_angle  =     189.662806 
E_dihed  =      38.587186 E_impro  =       1.319925 E_vdwl   =     -71.587272 
E_coul   =      13.071639 E_long   =     -16.199590 Press    =    -620.154169
------------ Step          15800 ----- CPU =     987.7577 (sec) -------------
TotEng   =     294.152157 KinEng   =     116.972093 Temp     =     324.311680 
PotEng   =     177.180064 E_bond   =      31.554718 E_angle  =     173.248811 
E_dihed  =      37.651284 E_impro  =       2.531190 E_vdwl   =     -64.337191 
E_coul   =      12.732847 E_long   =     -16.201596 Press    =   -1485.640141
------------ Step          15900 ----- CPU =     1003.899 (sec) -------------
TotEng   =     294.431578 KinEng   =     106.367374 Temp     =     294.909500 
PotEng   =     188.064205 E_bond   =      34.464154 E_angle  =     165.023985 
E_dihed  =      41.822271 E_impro  =       2.236050 E_vdwl   =     -52.134565 
E_coul   =      12.854433 E_long   =     -16.202123 Press    =     706.640377
------------ Step          16000 ----- CPU =     1020.019 (sec) -------------
TotEng   =     292.208319 KinEng   =     112.970644 Temp     =     313.217438 
PotEng   =     179.237675 E_bond   =      28.238988 E_angle  =     165.680443 
E_dihed  =      34.678549 E_impro  =       2.391390 E_vdwl   =     -48.388744 
E_coul   =      12.837199 E_long   =     -16.200151 Press    =     928.394441
------------ Step          16100 ----- CPU =      1035.86 (sec) -------------
TotEng   =     284.995050 KinEng   =     111.950356 Temp     =     310.388632 
PotEng   =     173.044694 E_bond   =      27.927232 E_angle  =     168.009465 
E_dihed  =      37.048430 E_impro  =       2.004930 E_vdwl   =     -58.833409 
E_coul   =      13.089371 E_long   =     -16.201324 Press    =    -271.787890
------------ Step          16200 ----- CPU =     1051.698 (sec) -------------
TotEng   =     275.733899 KinEng   =      99.686127 Temp     =     276.385370 
PotEng   =     176.047773 E_bond   =      32.608471 E_angle  =     158.894349 
E_dihed  =      41.986511 E_impro  =       2.294032 E_vdwl   =     -56.518134 
E_coul   =      12.984519 E_long   =     -16.201976 Press    =     723.737547
------------ Step          16300 ----- CPU =     1067.716 (sec) -------------
TotEng   =     267.179535 KinEng   =      90.504171 Temp     =     250.927883 
PotEng   =     176.675364 E_bond   =      35.549647 E_angle  =     165.816497 
E_dihed  =      40.949100 E_impro  =       1.405735 E_vdwl   =     -63.890318 
E_coul   =      13.047355 E_long   =     -16.202654 Press    =    -483.450764
------------ Step          16400 ----- CPU =     1083.968 (sec) -------------
TotEng   =     265.224538 KinEng   =      91.062359 Temp     =     252.475490 
PotEng   =     174.162179 E_bond   =      38.925013 E_angle  =     164.592357 
E_dihed  =      38.187505 E_impro  =       2.322221 E_vdwl   =     -66.532371 
E_coul   =      12.870355 E_long   =     -16.202902 Press    =     778.926071
------------ Step          16500 ----- CPU =     1100.327 (sec) -------------
TotEng   =     272.064580 KinEng   =      90.723071 Temp     =     251.534796 
PotEng   =     181.341509 E_bond   =      42.065488 E_angle  =     165.208165 
E_dihed  =      41.414868 E_impro  =       1.696208 E_vdwl   =     -65.868857 
E_coul   =      13.029214 E_long   =     -16.203577 Press    =   -2322.068734
------------ Step          16600 ----- CPU =     1116.811 (sec) -------------
TotEng   =     281.300857 KinEng   =      99.019346 Temp     =     274.536683 
PotEng   =     182.281511 E_bond   =      34.973069 E_angle  =     168.313511 
E_dihed  =      39.867117 E_impro  =       1.947937 E_vdwl   =     -60.251048 
E_coul   =      13.634573 E_long   =     -16.203649 Press    =     585.828065
------------ Step          16700 ----- CPU =     1133.239 (sec) -------------
TotEng   =     286.872051 KinEng   =     108.337604 Temp     =     300.372075 
PotEng   =     178.534447 E_bond   =      33.155045 E_angle  =     170.514929 
E_dihed  =      36.811127 E_impro  =       1.362755 E_vdwl   =     -60.353802 
E_coul   =      13.247308 E_long   =     -16.202916 Press    =     274.567936
------------ Step          16800 ----- CPU =     1149.671 (sec) -------------
TotEng   =     293.645893 KinEng   =      98.260629 Temp     =     272.433097 
PotEng   =     195.385264 E_bond   =      41.301779 E_angle  =     171.226359 
E_dihed  =      35.122083 E_impro  =       1.731999 E_vdwl   =     -51.016834 
E_coul   =      13.221858 E_long   =     -16.201980 Press    =   -1229.162333
------------ Step          16900 ----- CPU =     1166.104 (sec) -------------
TotEng   =     297.532301 KinEng   =     120.414411 Temp     =     333.855700 
PotEng   =     177.117890 E_bond   =      38.205429 E_angle  =     158.652195 
E_dihed  =      39.631418 E_impro  =       2.542095 E_vdwl   =     -58.990615 
E_coul   =      13.276403 E_long   =     -16.199035 Press    =    -234.318389
------------ Step          17000 ----- CPU =     1182.626 (sec) -------------
TotEng   =     306.090467 KinEng   =     119.491360 Temp     =     331.296487 
PotEng   =     186.599107 E_bond   =      33.539875 E_angle  =     160.548078 
E_dihed  =      40.114464 E_impro  =       1.445170 E_vdwl   =     -46.491155 
E_coul   =      13.644277 E_long   =     -16.201603 Press    =    1955.988302
------------ Step          17100 ----- CPU =     1198.852 (sec) -------------
TotEng   =     300.579720 KinEng   =     106.185328 Temp     =     294.404770 
PotEng   =     194.394392 E_bond   =      44.894927 E_angle  =     162.122989 
E_dihed  =      48.689061 E_impro  =       2.224679 E_vdwl   =     -60.462078 
E_coul   =      13.123630 E_long   =     -16.198817 Press    =   -1202.322156
------------ Step          17200 ----- CPU =     1214.409 (sec) -------------
TotEng   =     298.744852 KinEng   =     114.750186 Temp     =     318.151319 
PotEng   =     183.994666 E_bond   =      34.130782 E_angle  =     171.163974 
E_dihed  =      45.775043 E_impro  =       2.216536 E_vdwl   =     -66.500842 
E_coul   =      13.410986 E_long   =     -16.201813 Press    =     720.570441
------------ Step          17300 ----- CPU =     1229.892 (sec) -------------
TotEng   =     296.403849 KinEng   =     110.230162 Temp     =     305.619297 
PotEng   =     186.173688 E_bond   =      33.262796 E_angle  =     180.857363 
E_dihed  =      40.843384 E_impro  =       1.599651 E_vdwl   =     -67.147438 
E_coul   =      12.960693 E_long   =     -16.202761 Press    =    1293.189665
------------ Step          17400 ----- CPU =     1245.446 (sec) -------------
TotEng   =     293.330547 KinEng   =     110.270128 Temp     =     305.730107 
PotEng   =     183.060419 E_bond   =      37.857252 E_angle  =     171.544045 
E_dihed  =      40.305362 E_impro  =       1.716713 E_vdwl   =     -65.348470 
E_coul   =      13.190558 E_long   =     -16.205041 Press    =    -830.813323
