LAMMPS (8 Feb 2023)
OMP_NUM_THREADS environment is not set. Defaulting to 1 thread. (src/comm.cpp:98)
  using 1 OpenMP thread(s) per MPI task
# define variables

variable       spacing index 10.0
variable       lbox index 20.0
variable       sname string simplified_mc
variable       rtemp index 300


#package omp 4

units           real
atom_style      full
boundary        p p p
#pair_style      lj/cut/coul/long  14
pair_style      lj/charmm/coul/long/opt 9 10.00000
#pair_modify     mix arithmetic tail yes
#special_bonds   lj/coul 0.0 0.0 1.0
#kspace_style    ewald 0.0001
bond_style      harmonic
angle_style     harmonic
dihedral_style  harmonic
improper_style  umbrella
kspace_style    pppm 0.0001

# initialize a simple cumbic box for the initial structure

lattice        sc ${spacing}
lattice        sc 10.0
Lattice spacing in x,y,z = 10 10 10
region         mybox block 0 ${lbox} 0 ${lbox} 0 ${lbox} units box
region         mybox block 0 20.0 0 ${lbox} 0 ${lbox} units box
region         mybox block 0 20.0 0 20.0 0 ${lbox} units box
region         mybox block 0 20.0 0 20.0 0 20.0 units box
create_box     8 mybox                bond/types 13                angle/types 5                dihedral/types 11                improper/types 1                extra/bond/per/atom 13                extra/angle/per/atom 10                extra/dihedral/per/atom 20                extra/improper/per/atom 20                extra/special/per/atom 100
Created orthogonal box = (0 0 0) to (20 20 20)
  1 by 1 by 1 MPI processor grid

molecule       69 xlig.lammps.txt
Read molecule template 69:
  1 molecules
  0 fragments
  68 atoms with max type 7
  70 bonds with max type 10
  128 angles with max type 4
  188 dihedrals with max type 11
  39 impropers with max type 1
molecule       420 oleic.lammps.txt
Read molecule template 420:
  1 molecules
  0 fragments
  54 atoms with max type 6
  53 bonds with max type 13
  100 angles with max type 5
  141 dihedrals with max type 9
  9 impropers with max type 1


pair_modify          mix geometric
#neighbor             2.0 multi
#neigh_modify         every 2 delay 4 check yes
thermo_style         multi
thermo_modify        line multi format float %14.6f flush yes



# originally used box instead of single, which takes no args and auto populates the box until full
create_atoms   0 single 10 10 10   mol 69 42 units box
Created 68 atoms
  using box units in orthogonal box = (0 0 0) to (20 20 20)
  create_atoms CPU = 0.001 seconds
create_atoms   0 single 0 0 0  mol 420 42 units box
Created 54 atoms
  using box units in orthogonal box = (0 0 0) to (20 20 20)
  create_atoms CPU = 0.000 seconds


group xligand molecule == 69
0 atoms in group xligand
#group xligand id 1:68
#group xligand include molecule

group oleic_acid molecule == 420
0 atoms in group oleic_acid
#group oleic_acid id 69:122
#group oleic_acid include molecule



# coeffs
# Masses

mass    1 1.2011E+01 # C_3
mass    2 1.4007E+01 # N_3
mass    3 1.2011E+01 # C_R
mass    4 1.5999E+01 # O_2
mass    5 3.2060E+01 # S_3
mass    6 1.0080E+00 # H_
mass    7 1.0080E+00 # H___A
mass    8 1.5999E+01 # O_R


pair_coeff           1 1 0.09510000 3.47299041 # C_3 C_3
pair_coeff           2 2 0.07740000 3.26256026 # N_3 N_3
pair_coeff           3 3 0.09510000 3.47299041 # C_R C_R
pair_coeff           4 4 0.09570000 3.03315369 # O_2 O_2
pair_coeff           5 5 0.34400001 3.59032202 # S_3 S_3
pair_coeff           6 6 0.01520000 2.84642134 # H_ H_
pair_coeff           7 7 0.01520000 2.84642134 # H___A H___A
pair_coeff           8 8 0.09570000 3.03315369 # O_R O_R


pair_modify          mix geometric
neighbor             2.0 multi
neigh_modify         every 2 delay 4 check yes
thermo_style         multi
WARNING: New thermo_style command, previous thermo_modify settings will be lost (src/output.cpp:896)
thermo_modify        line multi format float %14.6f flush yes

bond_coeff           1 350 1.53000 # C_3 C_3
bond_coeff           2 350 1.09000 # C_3 H_
bond_coeff           3 350 1.46200 # N_3 C_3
bond_coeff           4 350 1.39200 # N_3 C_R
bond_coeff           5 525 1.39000 # C_R C_R
bond_coeff           6 350 1.02000 # C_R H_
bond_coeff           7 700 1.25000 # O_2 C_R
bond_coeff           8 350 1.73000 # S_3 C_R
bond_coeff           9 350 1.80000 # S_3 C_3
bond_coeff           10 350 1.36000 # S_3 H___A
bond_coeff           11 525 1.35000 # O_R C_R
bond_coeff           12 350 0.98000 # O_R H___A
bond_coeff           13 350 1.46000 # C_R C_3


angle_coeff          1 50 109.47100 # X C_3 X
angle_coeff          2 50 106.70000 # X N_3 X
angle_coeff          3 50 120 # X C_R X
angle_coeff          4 50 92.10000 # X S_3 X
angle_coeff          5 50 120 # X O_R X


dihedral_coeff       1 0.08333 -1 6 # C_R C_R C_3 X
dihedral_coeff       2 0.08333 -1 6 # O_2 C_R C_3 X
dihedral_coeff       3 0.08333 -1 6 # O_R C_R C_3 X
dihedral_coeff       4 0.11111 1 3 # X C_3 C_3 X
dihedral_coeff       5 0.16667 1 3 # X C_R C_3 X
dihedral_coeff       6 3.12500 -1 2 # X C_R C_R X
dihedral_coeff       7 0.16667 1 3 # X N_3 C_3 X
dihedral_coeff       8 0.12500 -1 6 # X N_3 C_R C_R
dihedral_coeff       9 6.25000 -1 2 # X O_R C_R X
dihedral_coeff       10 0.33333 1 3 # X S_3 C_3 X
dihedral_coeff       11 0.50000 -1 2 # X S_3 C_R X

improper_coeff       1 13.33333 0 # C_R X X X

timestep             0.5

print                .
.
print                ==========================================
==========================================
print                "500 steps CG Minimization"
500 steps CG Minimization
print                ==========================================
==========================================
print                .
.

dump                 1 all custom 25 ${sname}.min.lammpstrj id type xu yu zu vx vy vz
dump                 1 all custom 25 simplified_mc.min.lammpstrj id type xu yu zu vx vy vz
thermo               10
min_style            cg
minimize             1.0e-4 1.0e-4 500 5000

CITE-CITE-CITE-CITE-CITE-CITE-CITE-CITE-CITE-CITE-CITE-CITE-CITE

Your simulation uses code contributions which should be cited:

- neighbor multi command: doi:10.1016/j.cpc.2008.03.005, doi:10.1007/s40571-020-00361-2

@Article{Intveld08,
 author =  {in 't Veld, P. J. and S. J.~Plimpton and G. S. Grest},
 title =   {Accurate and Efficient Methods for Modeling Colloidal
            Mixtures in an Explicit Solvent using Molecular Dynamics},
 journal = {Comput.\ Phys.\ Commut.},
 year =    2008,
 volume =  179,
 pages =   {320--329}
}

@article{Shire2020,
 author = {Shire, Tom and Hanley, Kevin J. and Stratford, Kevin},
 title = {{DEM} Simulations of Polydisperse Media: Efficient Contact
          Detection Applied to Investigate the Quasi-Static Limit},
 journal = {Computational Particle Mechanics},
 year = {2020}
}

CITE-CITE-CITE-CITE-CITE-CITE-CITE-CITE-CITE-CITE-CITE-CITE-CITE

Switching to 'neigh_modify every 1 delay 0 check yes' setting during minimization
PPPM initialization ...
WARNING: System is not charge neutral, net charge = -0.0006 (src/kspace.cpp:327)
  using 12-bit tables for long-range coulomb (src/kspace.cpp:342)
  G vector (1/distance) = 0.14809026
  grid = 3 3 3
  stencil order = 5
  estimated absolute RMS force accuracy = 0.031780157
  estimated relative force accuracy = 9.5704998e-05
  using double precision FFTW3
  3d grid and FFT values/proc = 512 27
Generated 28 of 28 mixed pair_coeff terms from geometric mixing rule
Neighbor list info ...
  update: every = 1 steps, delay = 0 steps, check = yes
  max neighbors/atom: 2000, page size: 100000
  master list distance cutoff = 12
  ghost atom cutoff = 12
  binsize = 6, bins = 4 4 4
  1 neighbor lists, perpetual/occasional/extra = 1 0 0
  (1) pair lj/charmm/coul/long/opt, perpetual
      attributes: half, newton on
      pair build: half/multi/newton
      stencil: half/multi/3d
      bin: multi
Per MPI rank memory allocation (min/avg/max) = 31.79 | 31.79 | 31.79 Mbytes
------------ Step              0 ----- CPU =            0 (sec) -------------
TotEng   =   47704.531398 KinEng   =       0.000000 Temp     =       0.000000 
PotEng   =   47704.531398 E_bond   =     110.088059 E_angle  =      36.601372 
E_dihed  =      19.805602 E_impro  =       3.329327 E_vdwl   =   47535.850125 
E_coul   =      24.998785 E_long   =     -26.141872 Press    = 1638373.071719
------------ Step             10 ----- CPU =  0.002546628 (sec) -------------
TotEng   =     597.919516 KinEng   =       0.000000 Temp     =       0.000000 
PotEng   =     597.919516 E_bond   =      29.092403 E_angle  =     169.454584 
E_dihed  =      21.557370 E_impro  =       0.961529 E_vdwl   =     378.488320 
E_coul   =      24.477600 E_long   =     -26.112289 Press    =   19084.374650
------------ Step             20 ----- CPU =  0.006227176 (sec) -------------
TotEng   =     251.396861 KinEng   =       0.000000 Temp     =       0.000000 
PotEng   =     251.396861 E_bond   =      35.486760 E_angle  =     124.681428 
E_dihed  =      28.320316 E_impro  =       0.442898 E_vdwl   =      64.429754 
E_coul   =      24.144610 E_long   =     -26.108906 Press    =    2737.929194
------------ Step             30 ----- CPU =    0.0102724 (sec) -------------
TotEng   =     227.510758 KinEng   =       0.000000 Temp     =       0.000000 
PotEng   =     227.510758 E_bond   =      39.577244 E_angle  =     129.257624 
E_dihed  =      30.448878 E_impro  =       0.382553 E_vdwl   =      29.787384 
E_coul   =      24.171751 E_long   =     -26.114676 Press    =     323.128047
------------ Step             40 ----- CPU =    0.0141123 (sec) -------------
TotEng   =     221.202066 KinEng   =       0.000000 Temp     =       0.000000 
PotEng   =     221.202066 E_bond   =      34.449712 E_angle  =     129.073060 
E_dihed  =      30.985233 E_impro  =       0.486444 E_vdwl   =      28.217652 
E_coul   =      24.114003 E_long   =     -26.124038 Press    =     324.947277
------------ Step             50 ----- CPU =   0.01810326 (sec) -------------
TotEng   =     216.984425 KinEng   =       0.000000 Temp     =       0.000000 
PotEng   =     216.984425 E_bond   =      33.867042 E_angle  =     124.137549 
E_dihed  =      31.078109 E_impro  =       0.644359 E_vdwl   =      29.434645 
E_coul   =      23.958120 E_long   =     -26.135399 Press    =     393.026681
------------ Step             60 ----- CPU =   0.02251276 (sec) -------------
TotEng   =     212.376312 KinEng   =       0.000000 Temp     =       0.000000 
PotEng   =     212.376312 E_bond   =      32.941824 E_angle  =     125.713100 
E_dihed  =      31.963390 E_impro  =       0.640466 E_vdwl   =      23.375100 
E_coul   =      23.887585 E_long   =     -26.145153 Press    =      12.192140
------------ Step             70 ----- CPU =   0.02635369 (sec) -------------
TotEng   =     210.388893 KinEng   =       0.000000 Temp     =       0.000000 
PotEng   =     210.388893 E_bond   =      31.695075 E_angle  =     125.601752 
E_dihed  =      32.816769 E_impro  =       0.503935 E_vdwl   =      22.047261 
E_coul   =      23.870763 E_long   =     -26.146662 Press    =       0.953718
------------ Step             80 ----- CPU =   0.03036518 (sec) -------------
TotEng   =     209.037808 KinEng   =       0.000000 Temp     =       0.000000 
PotEng   =     209.037808 E_bond   =      30.765731 E_angle  =     124.674160 
E_dihed  =      32.306652 E_impro  =       0.411739 E_vdwl   =      23.240006 
E_coul   =      23.783403 E_long   =     -26.143883 Press    =      33.862889
------------ Step             90 ----- CPU =   0.03418191 (sec) -------------
TotEng   =     207.436790 KinEng   =       0.000000 Temp     =       0.000000 
PotEng   =     207.436790 E_bond   =      31.224543 E_angle  =     123.482883 
E_dihed  =      31.372589 E_impro  =       0.516818 E_vdwl   =      23.317991 
E_coul   =      23.659404 E_long   =     -26.137439 Press    =    -164.622776
------------ Step            100 ----- CPU =   0.03878384 (sec) -------------
TotEng   =     206.144958 KinEng   =       0.000000 Temp     =       0.000000 
PotEng   =     206.144958 E_bond   =      31.527668 E_angle  =     124.278802 
E_dihed  =      30.526361 E_impro  =       0.589951 E_vdwl   =      21.593880 
E_coul   =      23.758817 E_long   =     -26.130521 Press    =    -305.502730
------------ Step            110 ----- CPU =   0.04268603 (sec) -------------
TotEng   =     205.068733 KinEng   =       0.000000 Temp     =       0.000000 
PotEng   =     205.068733 E_bond   =      31.300823 E_angle  =     123.411420 
E_dihed  =      29.609459 E_impro  =       0.556986 E_vdwl   =      22.549602 
E_coul   =      23.766706 E_long   =     -26.126264 Press    =    -207.332943
------------ Step            120 ----- CPU =    0.0465322 (sec) -------------
TotEng   =     204.337625 KinEng   =       0.000000 Temp     =       0.000000 
PotEng   =     204.337625 E_bond   =      30.995371 E_angle  =     123.622079 
E_dihed  =      28.601288 E_impro  =       0.552708 E_vdwl   =      22.938222 
E_coul   =      23.754323 E_long   =     -26.126367 Press    =     -90.006912
------------ Step            130 ----- CPU =    0.0505413 (sec) -------------
TotEng   =     203.712835 KinEng   =       0.000000 Temp     =       0.000000 
PotEng   =     203.712835 E_bond   =      30.946840 E_angle  =     124.576712 
E_dihed  =      28.038090 E_impro  =       0.551832 E_vdwl   =      22.006554 
E_coul   =      23.721287 E_long   =     -26.128478 Press    =    -102.761174
------------ Step            140 ----- CPU =   0.05435679 (sec) -------------
TotEng   =     203.076027 KinEng   =       0.000000 Temp     =       0.000000 
PotEng   =     203.076027 E_bond   =      31.058000 E_angle  =     125.232856 
E_dihed  =      27.734492 E_impro  =       0.596107 E_vdwl   =      20.880324 
E_coul   =      23.705077 E_long   =     -26.130830 Press    =    -113.296397
------------ Step            150 ----- CPU =   0.05834766 (sec) -------------
TotEng   =     202.448068 KinEng   =       0.000000 Temp     =       0.000000 
PotEng   =     202.448068 E_bond   =      30.765917 E_angle  =     125.625472 
E_dihed  =      26.856765 E_impro  =       0.559692 E_vdwl   =      21.094028 
E_coul   =      23.678588 E_long   =     -26.132394 Press    =     -50.091860
------------ Step            160 ----- CPU =   0.06271298 (sec) -------------
TotEng   =     201.532614 KinEng   =       0.000000 Temp     =       0.000000 
PotEng   =     201.532614 E_bond   =      30.832273 E_angle  =     126.625680 
E_dihed  =      25.289638 E_impro  =       0.583810 E_vdwl   =      20.732425 
E_coul   =      23.599013 E_long   =     -26.130225 Press    =     -70.819276
------------ Step            170 ----- CPU =   0.06655099 (sec) -------------
TotEng   =     200.844254 KinEng   =       0.000000 Temp     =       0.000000 
PotEng   =     200.844254 E_bond   =      31.575068 E_angle  =     128.899701 
E_dihed  =      24.434173 E_impro  =       0.544531 E_vdwl   =      17.961108 
E_coul   =      23.557376 E_long   =     -26.127705 Press    =    -302.190899
------------ Step            180 ----- CPU =   0.07054297 (sec) -------------
TotEng   =     200.389736 KinEng   =       0.000000 Temp     =       0.000000 
PotEng   =     200.389736 E_bond   =      31.270712 E_angle  =     129.039978 
E_dihed  =      24.318035 E_impro  =       0.536117 E_vdwl   =      17.831860 
E_coul   =      23.520631 E_long   =     -26.127597 Press    =    -303.459784
------------ Step            188 ----- CPU =   0.07397115 (sec) -------------
TotEng   =     200.016302 KinEng   =       0.000000 Temp     =       0.000000 
PotEng   =     200.016302 E_bond   =      31.129215 E_angle  =     128.151704 
E_dihed  =      24.369723 E_impro  =       0.493734 E_vdwl   =      18.607637 
E_coul   =      23.392618 E_long   =     -26.128328 Press    =    -244.611825
Loop time of 0.0739982 on 1 procs for 188 steps with 122 atoms

95.7% CPU use with 1 MPI tasks x 1 OpenMP threads

Minimization stats:
  Stopping criterion = energy tolerance
  Energy initial, next-to-last, final = 
      47704.5313982105     200.0313189902   200.016301751765
  Force two-norm initial, final = 806464.23 7.9368788
  Force max component initial, final = 496010.83 2.4948871
  Final line search alpha, max atom move = 0.0072625632 0.018119275
  Iterations, force evaluations = 188 365

MPI task timing breakdown:
Section |  min time  |  avg time  |  max time  |%varavg| %total
---------------------------------------------------------------
Pair    | 0.040725   | 0.040725   | 0.040725   |   0.0 | 55.03
Bond    | 0.012126   | 0.012126   | 0.012126   |   0.0 | 16.39
Kspace  | 0.014656   | 0.014656   | 0.014656   |   0.0 | 19.81
Neigh   | 0.0019746  | 0.0019746  | 0.0019746  |   0.0 |  2.67
Comm    | 0.0016887  | 0.0016887  | 0.0016887  |   0.0 |  2.28
Output  | 0.0015507  | 0.0015507  | 0.0015507  |   0.0 |  2.10
Modify  | 0          | 0          | 0          |   0.0 |  0.00
Other   |            | 0.001277   |            |       |  1.73

Nlocal:            122 ave         122 max         122 min
Histogram: 1 0 0 0 0 0 0 0 0 0
Nghost:           1243 ave        1243 max        1243 min
Histogram: 1 0 0 0 0 0 0 0 0 0
Neighs:           6227 ave        6227 max        6227 min
Histogram: 1 0 0 0 0 0 0 0 0 0

Total # of neighbors = 6227
Ave neighs/atom = 51.040984
Ave special neighs/atom = 10.967213
Neighbor list builds = 4
Dangerous builds = 0
min_style            sd
minimize             1.0e-4 1.0e-4 500 5000
Switching to 'neigh_modify every 1 delay 0 check yes' setting during minimization
PPPM initialization ...
  using 12-bit tables for long-range coulomb (src/kspace.cpp:342)
  G vector (1/distance) = 0.14809026
  grid = 3 3 3
  stencil order = 5
  estimated absolute RMS force accuracy = 0.031780157
  estimated relative force accuracy = 9.5704998e-05
  using double precision FFTW3
  3d grid and FFT values/proc = 512 27
Generated 28 of 28 mixed pair_coeff terms from geometric mixing rule
Per MPI rank memory allocation (min/avg/max) = 31.79 | 31.79 | 31.79 Mbytes
------------ Step            188 ----- CPU =            0 (sec) -------------
TotEng   =     200.016302 KinEng   =       0.000000 Temp     =       0.000000 
PotEng   =     200.016302 E_bond   =      31.129215 E_angle  =     128.151704 
E_dihed  =      24.369723 E_impro  =       0.493734 E_vdwl   =      18.607637 
E_coul   =      23.392618 E_long   =     -26.128328 Press    =    -244.611825
------------ Step            189 ----- CPU =  0.000775435 (sec) -------------
TotEng   =     200.003072 KinEng   =       0.000000 Temp     =       0.000000 
PotEng   =     200.003072 E_bond   =      31.114368 E_angle  =     128.172010 
E_dihed  =      24.372752 E_impro  =       0.491815 E_vdwl   =      18.588556 
E_coul   =      23.391986 E_long   =     -26.128414 Press    =    -238.604737
Loop time of 0.000803798 on 1 procs for 1 steps with 122 atoms

80.9% CPU use with 1 MPI tasks x 1 OpenMP threads

Minimization stats:
  Stopping criterion = energy tolerance
  Energy initial, next-to-last, final = 
      200.016301751765   200.016301751765   200.003071556374
  Force two-norm initial, final = 7.9368788 3.81103
  Force max component initial, final = 2.4948871 0.90752967
  Final line search alpha, max atom move = 0.040081973 0.03637558
  Iterations, force evaluations = 1 2

MPI task timing breakdown:
Section |  min time  |  avg time  |  max time  |%varavg| %total
---------------------------------------------------------------
Pair    | 0.00035469 | 0.00035469 | 0.00035469 |   0.0 | 44.13
Bond    | 0.00010379 | 0.00010379 | 0.00010379 |   0.0 | 12.91
Kspace  | 0.00012114 | 0.00012114 | 0.00012114 |   0.0 | 15.07
Neigh   | 0          | 0          | 0          |   0.0 |  0.00
Comm    | 1.3175e-05 | 1.3175e-05 | 1.3175e-05 |   0.0 |  1.64
Output  | 0          | 0          | 0          |   0.0 |  0.00
Modify  | 0          | 0          | 0          |   0.0 |  0.00
Other   |            | 0.000211   |            |       | 26.25

Nlocal:            122 ave         122 max         122 min
Histogram: 1 0 0 0 0 0 0 0 0 0
Nghost:           1239 ave        1239 max        1239 min
Histogram: 1 0 0 0 0 0 0 0 0 0
Neighs:           6211 ave        6211 max        6211 min
Histogram: 1 0 0 0 0 0 0 0 0 0

Total # of neighbors = 6211
Ave neighs/atom = 50.909836
Ave special neighs/atom = 10.967213
Neighbor list builds = 0
Dangerous builds = 0
#now                 minimize the entire system
minimize             1.0e-4 1.0e-4 500 5000
Switching to 'neigh_modify every 1 delay 0 check yes' setting during minimization
PPPM initialization ...
  using 12-bit tables for long-range coulomb (src/kspace.cpp:342)
  G vector (1/distance) = 0.14809026
  grid = 3 3 3
  stencil order = 5
  estimated absolute RMS force accuracy = 0.031780157
  estimated relative force accuracy = 9.5704998e-05
  using double precision FFTW3
  3d grid and FFT values/proc = 512 27
Generated 28 of 28 mixed pair_coeff terms from geometric mixing rule
Per MPI rank memory allocation (min/avg/max) = 31.79 | 31.79 | 31.79 Mbytes
------------ Step            189 ----- CPU =            0 (sec) -------------
TotEng   =     200.003072 KinEng   =       0.000000 Temp     =       0.000000 
PotEng   =     200.003072 E_bond   =      31.114368 E_angle  =     128.172010 
E_dihed  =      24.372752 E_impro  =       0.491815 E_vdwl   =      18.588556 
E_coul   =      23.391986 E_long   =     -26.128414 Press    =    -238.604737
------------ Step            190 ----- CPU =  0.000797316 (sec) -------------
TotEng   =     199.999419 KinEng   =       0.000000 Temp     =       0.000000 
PotEng   =     199.999419 E_bond   =      31.085559 E_angle  =     128.210009 
E_dihed  =      24.378618 E_impro  =       0.491077 E_vdwl   =      18.567555 
E_coul   =      23.394978 E_long   =     -26.128377 Press    =    -236.984364
Loop time of 0.000823575 on 1 procs for 1 steps with 122 atoms

98.0% CPU use with 1 MPI tasks x 1 OpenMP threads

Minimization stats:
  Stopping criterion = energy tolerance
  Energy initial, next-to-last, final = 
      200.003071556374   200.003071556374   199.999418856088
  Force two-norm initial, final = 3.81103 5.2339648
  Force max component initial, final = 0.90752967 1.7096814
  Final line search alpha, max atom move = 0.11018924 0.18838849
  Iterations, force evaluations = 1 2

MPI task timing breakdown:
Section |  min time  |  avg time  |  max time  |%varavg| %total
---------------------------------------------------------------
Pair    | 0.00036233 | 0.00036233 | 0.00036233 |   0.0 | 43.99
Bond    | 0.00011454 | 0.00011454 | 0.00011454 |   0.0 | 13.91
Kspace  | 0.00012151 | 0.00012151 | 0.00012151 |   0.0 | 14.75
Neigh   | 0          | 0          | 0          |   0.0 |  0.00
Comm    | 1.3056e-05 | 1.3056e-05 | 1.3056e-05 |   0.0 |  1.59
Output  | 0          | 0          | 0          |   0.0 |  0.00
Modify  | 0          | 0          | 0          |   0.0 |  0.00
Other   |            | 0.0002121  |            |       | 25.76

Nlocal:            122 ave         122 max         122 min
Histogram: 1 0 0 0 0 0 0 0 0 0
Nghost:           1239 ave        1239 max        1239 min
Histogram: 1 0 0 0 0 0 0 0 0 0
Neighs:           6211 ave        6211 max        6211 min
Histogram: 1 0 0 0 0 0 0 0 0 0

Total # of neighbors = 6211
Ave neighs/atom = 50.909836
Ave special neighs/atom = 10.967213
Neighbor list builds = 0
Dangerous builds = 0
undump               1


fix                  freeze oleic_acid setforce 0.0 0.0 0.0
fix                  1 all gcmc 1 0 100 0 1234567 300.0 0 10 mol 69 full_energy mcmoves 0 1 1
dump                 2 all custom 10 ${sname}.simple_mc.lammpstrj id type xu yu zu vx vy vz
dump                 2 all custom 10 simplified_mc.simple_mc.lammpstrj id type xu yu zu vx vy vz
run                  10000
WARNING: No fixes with time integration, atoms won't move (src/verlet.cpp:60)
PPPM initialization ...
  using 12-bit tables for long-range coulomb (src/kspace.cpp:342)
  G vector (1/distance) = 0.14809026
  grid = 3 3 3
  stencil order = 5
  estimated absolute RMS force accuracy = 0.031780157
  estimated relative force accuracy = 9.5704998e-05
  using double precision FFTW3
  3d grid and FFT values/proc = 512 27
Generated 28 of 28 mixed pair_coeff terms from geometric mixing rule
0 atoms in group FixGCMC:gcmc_exclusion_group:1
0 atoms in group FixGCMC:rotation_gas_atoms:1
WARNING: Fix gcmc is being applied to the default group all (src/MC/fix_gcmc.cpp:672)
WARNING: Neighbor exclusions used with KSpace solver may give inconsistent Coulombic energies (src/neighbor.cpp:639)
Per MPI rank memory allocation (min/avg/max) = 30.66 | 30.66 | 30.66 Mbytes
------------ Step            190 ----- CPU =            0 (sec) -------------
TotEng   =     199.999419 KinEng   =       0.000000 Temp     =       0.000000 
PotEng   =     199.999419 E_bond   =      31.085559 E_angle  =     128.210009 
E_dihed  =      24.378618 E_impro  =       0.491077 E_vdwl   =      18.567555 
E_coul   =      23.394978 E_long   =     -26.128377 Press    =    -236.984364
------------ Step            200 ----- CPU =    0.8607951 (sec) -------------
TotEng   =     182.821722 KinEng   =       0.000000 Temp     =       0.000000 
PotEng   =     182.821722 E_bond   =      31.085559 E_angle  =     128.210009 
E_dihed  =      24.378618 E_impro  =       0.491077 E_vdwl   =       1.299770 
E_coul   =      23.545192 E_long   =     -26.188502 Press    =    -384.414055
------------ Step            210 ----- CPU =     1.720518 (sec) -------------
TotEng   =     182.337753 KinEng   =       0.000000 Temp     =       0.000000 
PotEng   =     182.337753 E_bond   =      31.085559 E_angle  =     128.210009 
E_dihed  =      24.378618 E_impro  =       0.491077 E_vdwl   =       0.751448 
E_coul   =      23.626514 E_long   =     -26.205471 Press    =    -243.181416
------------ Step            220 ----- CPU =     2.582348 (sec) -------------
TotEng   =     182.393265 KinEng   =       0.000000 Temp     =       0.000000 
PotEng   =     182.393265 E_bond   =      31.085559 E_angle  =     128.210009 
E_dihed  =      24.378618 E_impro  =       0.491077 E_vdwl   =       1.094202 
E_coul   =      23.341419 E_long   =     -26.207618 Press    =    -347.631720
------------ Step            230 ----- CPU =     3.443984 (sec) -------------
TotEng   =     182.426879 KinEng   =       0.000000 Temp     =       0.000000 
PotEng   =     182.426879 E_bond   =      31.085559 E_angle  =     128.210009 
E_dihed  =      24.378618 E_impro  =       0.491077 E_vdwl   =       1.101587 
E_coul   =      23.364285 E_long   =     -26.204255 Press    =    -326.055306
------------ Step            240 ----- CPU =     4.300582 (sec) -------------
TotEng   =     179.199928 KinEng   =       0.000000 Temp     =       0.000000 
PotEng   =     179.199928 E_bond   =      31.085559 E_angle  =     128.210009 
E_dihed  =      24.378618 E_impro  =       0.491077 E_vdwl   =      -2.219989 
E_coul   =      23.464244 E_long   =     -26.209589 Press    =    -321.173956
------------ Step            250 ----- CPU =     5.158334 (sec) -------------
TotEng   =     182.872516 KinEng   =       0.000000 Temp     =       0.000000 
PotEng   =     182.872516 E_bond   =      31.085559 E_angle  =     128.210009 
E_dihed  =      24.378618 E_impro  =       0.491077 E_vdwl   =       1.695472 
E_coul   =      23.217003 E_long   =     -26.205221 Press    =    -225.131657
------------ Step            260 ----- CPU =     6.006392 (sec) -------------
TotEng   =     179.342274 KinEng   =       0.000000 Temp     =       0.000000 
PotEng   =     179.342274 E_bond   =      31.085559 E_angle  =     128.210009 
E_dihed  =      24.378618 E_impro  =       0.491077 E_vdwl   =      -2.018387 
E_coul   =      23.400183 E_long   =     -26.204784 Press    =    -210.181520
------------ Step            270 ----- CPU =     6.860398 (sec) -------------
TotEng   =     177.407436 KinEng   =       0.000000 Temp     =       0.000000 
PotEng   =     177.407436 E_bond   =      31.085559 E_angle  =     128.210009 
E_dihed  =      24.378618 E_impro  =       0.491077 E_vdwl   =      -3.861543 
E_coul   =      23.308949 E_long   =     -26.205232 Press    =    -361.183942
------------ Step            280 ----- CPU =     7.713121 (sec) -------------
TotEng   =     178.611161 KinEng   =       0.000000 Temp     =       0.000000 
PotEng   =     178.611161 E_bond   =      31.085559 E_angle  =     128.210009 
E_dihed  =      24.378618 E_impro  =       0.491077 E_vdwl   =      -2.726269 
E_coul   =      23.378391 E_long   =     -26.206223 Press    =    -313.042258
------------ Step            290 ----- CPU =     8.564566 (sec) -------------
TotEng   =     178.722516 KinEng   =       0.000000 Temp     =       0.000000 
PotEng   =     178.722516 E_bond   =      31.085559 E_angle  =     128.210009 
E_dihed  =      24.378618 E_impro  =       0.491077 E_vdwl   =      -2.548472 
E_coul   =      23.307118 E_long   =     -26.201391 Press    =    -318.346873
------------ Step            300 ----- CPU =     9.418754 (sec) -------------
TotEng   =     178.632557 KinEng   =       0.000000 Temp     =       0.000000 
PotEng   =     178.632557 E_bond   =      31.085559 E_angle  =     128.210009 
E_dihed  =      24.378618 E_impro  =       0.491077 E_vdwl   =      -2.731616 
E_coul   =      23.398798 E_long   =     -26.199887 Press    =    -363.272927
------------ Step            310 ----- CPU =     10.27121 (sec) -------------
TotEng   =     178.094163 KinEng   =       0.000000 Temp     =       0.000000 
PotEng   =     178.094163 E_bond   =      31.085559 E_angle  =     128.210009 
E_dihed  =      24.378618 E_impro  =       0.491077 E_vdwl   =      -3.203063 
E_coul   =      23.337402 E_long   =     -26.205437 Press    =    -363.390326
------------ Step            320 ----- CPU =     11.12345 (sec) -------------
TotEng   =     178.055871 KinEng   =       0.000000 Temp     =       0.000000 
PotEng   =     178.055871 E_bond   =      31.085559 E_angle  =     128.210009 
E_dihed  =      24.378618 E_impro  =       0.491077 E_vdwl   =      -3.268505 
E_coul   =      23.357490 E_long   =     -26.198377 Press    =    -302.633263
------------ Step            330 ----- CPU =      11.9785 (sec) -------------
TotEng   =     179.900557 KinEng   =       0.000000 Temp     =       0.000000 
PotEng   =     179.900557 E_bond   =      31.085559 E_angle  =     128.210009 
E_dihed  =      24.378618 E_impro  =       0.491077 E_vdwl   =      -1.460623 
E_coul   =      23.389457 E_long   =     -26.193539 Press    =    -367.556191
------------ Step            340 ----- CPU =     12.83948 (sec) -------------
TotEng   =     178.983983 KinEng   =       0.000000 Temp     =       0.000000 
PotEng   =     178.983983 E_bond   =      31.085559 E_angle  =     128.210009 
E_dihed  =      24.378618 E_impro  =       0.491077 E_vdwl   =      -2.392676 
E_coul   =      23.411474 E_long   =     -26.200077 Press    =    -396.306154
------------ Step            350 ----- CPU =     13.69455 (sec) -------------
TotEng   =     178.935235 KinEng   =       0.000000 Temp     =       0.000000 
PotEng   =     178.935235 E_bond   =      31.085559 E_angle  =     128.210009 
E_dihed  =      24.378618 E_impro  =       0.491077 E_vdwl   =      -2.331227 
E_coul   =      23.306689 E_long   =     -26.205490 Press    =    -392.340847
------------ Step            360 ----- CPU =     14.54838 (sec) -------------
TotEng   =     181.196225 KinEng   =       0.000000 Temp     =       0.000000 
PotEng   =     181.196225 E_bond   =      31.085559 E_angle  =     128.210009 
E_dihed  =      24.378618 E_impro  =       0.491077 E_vdwl   =      -0.052101 
E_coul   =      23.285892 E_long   =     -26.202828 Press    =     -21.508991
------------ Step            370 ----- CPU =     15.40207 (sec) -------------
TotEng   =     178.429713 KinEng   =       0.000000 Temp     =       0.000000 
PotEng   =     178.429713 E_bond   =      31.085559 E_angle  =     128.210009 
E_dihed  =      24.378618 E_impro  =       0.491077 E_vdwl   =      -2.922481 
E_coul   =      23.377779 E_long   =     -26.190848 Press    =    -288.876331
------------ Step            380 ----- CPU =     16.25827 (sec) -------------
TotEng   =     176.969350 KinEng   =       0.000000 Temp     =       0.000000 
PotEng   =     176.969350 E_bond   =      31.085559 E_angle  =     128.210009 
E_dihed  =      24.378618 E_impro  =       0.491077 E_vdwl   =      -4.598095 
E_coul   =      23.544835 E_long   =     -26.142651 Press    =    -415.622423
------------ Step            390 ----- CPU =     17.11851 (sec) -------------
TotEng   =     176.196845 KinEng   =       0.000000 Temp     =       0.000000 
PotEng   =     176.196845 E_bond   =      31.085559 E_angle  =     128.210009 
E_dihed  =      24.378618 E_impro  =       0.491077 E_vdwl   =      -5.429761 
E_coul   =      23.597399 E_long   =     -26.136055 Press    =    -406.309034
------------ Step            400 ----- CPU =     17.98692 (sec) -------------
TotEng   =     173.721482 KinEng   =       0.000000 Temp     =       0.000000 
PotEng   =     173.721482 E_bond   =      31.085559 E_angle  =     128.210009 
E_dihed  =      24.378618 E_impro  =       0.491077 E_vdwl   =      -8.472423 
E_coul   =      24.144580 E_long   =     -26.115937 Press    =    -498.066231
------------ Step            410 ----- CPU =     18.86833 (sec) -------------
TotEng   =     173.076169 KinEng   =       0.000000 Temp     =       0.000000 
PotEng   =     173.076169 E_bond   =      31.085559 E_angle  =     128.210009 
E_dihed  =      24.378618 E_impro  =       0.491077 E_vdwl   =      -9.467892 
E_coul   =      24.502245 E_long   =     -26.123446 Press    =    -318.132883
------------ Step            420 ----- CPU =     19.74051 (sec) -------------
TotEng   =     175.780836 KinEng   =       0.000000 Temp     =       0.000000 
PotEng   =     175.780836 E_bond   =      31.085559 E_angle  =     128.210009 
E_dihed  =      24.378618 E_impro  =       0.491077 E_vdwl   =      -6.396542 
E_coul   =      24.124255 E_long   =     -26.112140 Press    =    -456.091897
------------ Step            430 ----- CPU =     20.61863 (sec) -------------
TotEng   =     175.490227 KinEng   =       0.000000 Temp     =       0.000000 
PotEng   =     175.490227 E_bond   =      31.085559 E_angle  =     128.210009 
E_dihed  =      24.378618 E_impro  =       0.491077 E_vdwl   =      -6.840364 
E_coul   =      24.286339 E_long   =     -26.121010 Press    =    -403.523080
------------ Step            440 ----- CPU =     21.49967 (sec) -------------
TotEng   =     175.228804 KinEng   =       0.000000 Temp     =       0.000000 
PotEng   =     175.228804 E_bond   =      31.085559 E_angle  =     128.210009 
E_dihed  =      24.378618 E_impro  =       0.491077 E_vdwl   =      -7.159916 
E_coul   =      24.325731 E_long   =     -26.102274 Press    =    -515.527002
------------ Step            450 ----- CPU =     22.38311 (sec) -------------
TotEng   =     173.586602 KinEng   =       0.000000 Temp     =       0.000000 
PotEng   =     173.586602 E_bond   =      31.085559 E_angle  =     128.210009 
E_dihed  =      24.378618 E_impro  =       0.491077 E_vdwl   =      -8.534563 
E_coul   =      24.077709 E_long   =     -26.121806 Press    =    -459.175526
------------ Step            460 ----- CPU =     23.26637 (sec) -------------
TotEng   =     174.930286 KinEng   =       0.000000 Temp     =       0.000000 
PotEng   =     174.930286 E_bond   =      31.085559 E_angle  =     128.210009 
E_dihed  =      24.378618 E_impro  =       0.491077 E_vdwl   =      -7.682617 
E_coul   =      24.569259 E_long   =     -26.121618 Press    =    -365.623945
------------ Step            470 ----- CPU =     24.15053 (sec) -------------
TotEng   =     174.960530 KinEng   =       0.000000 Temp     =       0.000000 
PotEng   =     174.960530 E_bond   =      31.085559 E_angle  =     128.210009 
E_dihed  =      24.378618 E_impro  =       0.491077 E_vdwl   =      -7.374331 
E_coul   =      24.284732 E_long   =     -26.115133 Press    =    -455.189755
------------ Step            480 ----- CPU =     25.03443 (sec) -------------
TotEng   =     174.837658 KinEng   =       0.000000 Temp     =       0.000000 
PotEng   =     174.837658 E_bond   =      31.085559 E_angle  =     128.210009 
E_dihed  =      24.378618 E_impro  =       0.491077 E_vdwl   =      -6.517555 
E_coul   =      23.321677 E_long   =     -26.131727 Press    =    -368.941426
------------ Step            490 ----- CPU =      25.9172 (sec) -------------
TotEng   =     177.078084 KinEng   =       0.000000 Temp     =       0.000000 
PotEng   =     177.078084 E_bond   =      31.085559 E_angle  =     128.210009 
E_dihed  =      24.378618 E_impro  =       0.491077 E_vdwl   =      -4.499237 
E_coul   =      23.533683 E_long   =     -26.121624 Press    =    -445.188872
------------ Step            500 ----- CPU =     26.80571 (sec) -------------
TotEng   =     174.297868 KinEng   =       0.000000 Temp     =       0.000000 
PotEng   =     174.297868 E_bond   =      31.085559 E_angle  =     128.210009 
E_dihed  =      24.378618 E_impro  =       0.491077 E_vdwl   =      -7.827929 
E_coul   =      24.074512 E_long   =     -26.113977 Press    =    -396.828572
------------ Step            510 ----- CPU =     27.69436 (sec) -------------
TotEng   =     174.570221 KinEng   =       0.000000 Temp     =       0.000000 
PotEng   =     174.570221 E_bond   =      31.085559 E_angle  =     128.210009 
E_dihed  =      24.378618 E_impro  =       0.491077 E_vdwl   =      -7.076308 
E_coul   =      23.604514 E_long   =     -26.123247 Press    =    -302.040575
------------ Step            520 ----- CPU =     28.58345 (sec) -------------
TotEng   =     174.143109 KinEng   =       0.000000 Temp     =       0.000000 
PotEng   =     174.143109 E_bond   =      31.085559 E_angle  =     128.210009 
E_dihed  =      24.378618 E_impro  =       0.491077 E_vdwl   =      -7.850886 
E_coul   =      23.946458 E_long   =     -26.117725 Press    =    -488.829276
------------ Step            530 ----- CPU =      29.4738 (sec) -------------
TotEng   =     176.814577 KinEng   =       0.000000 Temp     =       0.000000 
PotEng   =     176.814577 E_bond   =      31.085559 E_angle  =     128.210009 
E_dihed  =      24.378618 E_impro  =       0.491077 E_vdwl   =      -4.830424 
E_coul   =      23.609931 E_long   =     -26.130193 Press    =    -198.838180
------------ Step            540 ----- CPU =     30.36757 (sec) -------------
TotEng   =     178.754624 KinEng   =       0.000000 Temp     =       0.000000 
PotEng   =     178.754624 E_bond   =      31.085559 E_angle  =     128.210009 
E_dihed  =      24.378618 E_impro  =       0.491077 E_vdwl   =      -2.627956 
E_coul   =      23.336876 E_long   =     -26.119559 Press    =    -308.964784
------------ Step            550 ----- CPU =     31.26363 (sec) -------------
TotEng   =     176.151784 KinEng   =       0.000000 Temp     =       0.000000 
PotEng   =     176.151784 E_bond   =      31.085559 E_angle  =     128.210009 
E_dihed  =      24.378618 E_impro  =       0.491077 E_vdwl   =      -5.188109 
E_coul   =      23.301462 E_long   =     -26.126830 Press    =    -415.028656
------------ Step            560 ----- CPU =     32.16375 (sec) -------------
TotEng   =     177.270878 KinEng   =       0.000000 Temp     =       0.000000 
PotEng   =     177.270878 E_bond   =      31.085559 E_angle  =     128.210009 
E_dihed  =      24.378618 E_impro  =       0.491077 E_vdwl   =      -4.292087 
E_coul   =      23.513080 E_long   =     -26.115378 Press    =    -376.306192
------------ Step            570 ----- CPU =     33.06345 (sec) -------------
TotEng   =     177.458866 KinEng   =       0.000000 Temp     =       0.000000 
PotEng   =     177.458866 E_bond   =      31.085559 E_angle  =     128.210009 
E_dihed  =      24.378618 E_impro  =       0.491077 E_vdwl   =      -3.956892 
E_coul   =      23.373099 E_long   =     -26.122602 Press    =    -388.057223
------------ Step            580 ----- CPU =     33.96155 (sec) -------------
TotEng   =     176.356834 KinEng   =       0.000000 Temp     =       0.000000 
PotEng   =     176.356834 E_bond   =      31.085559 E_angle  =     128.210009 
E_dihed  =      24.378618 E_impro  =       0.491077 E_vdwl   =      -5.153032 
E_coul   =      23.467921 E_long   =     -26.123317 Press    =    -393.607518
------------ Step            590 ----- CPU =     34.86065 (sec) -------------
TotEng   =     178.087336 KinEng   =       0.000000 Temp     =       0.000000 
PotEng   =     178.087336 E_bond   =      31.085559 E_angle  =     128.210009 
E_dihed  =      24.378618 E_impro  =       0.491077 E_vdwl   =      -3.442062 
E_coul   =      23.492544 E_long   =     -26.128408 Press    =    -200.595288
------------ Step            600 ----- CPU =     35.76009 (sec) -------------
TotEng   =     177.053796 KinEng   =       0.000000 Temp     =       0.000000 
PotEng   =     177.053796 E_bond   =      31.085559 E_angle  =     128.210009 
E_dihed  =      24.378618 E_impro  =       0.491077 E_vdwl   =      -4.467085 
E_coul   =      23.472523 E_long   =     -26.116904 Press    =    -342.094684
------------ Step            610 ----- CPU =     36.65538 (sec) -------------
TotEng   =     179.895424 KinEng   =       0.000000 Temp     =       0.000000 
PotEng   =     179.895424 E_bond   =      31.085559 E_angle  =     128.210009 
E_dihed  =      24.378618 E_impro  =       0.491077 E_vdwl   =      -1.608294 
E_coul   =      23.444794 E_long   =     -26.106338 Press    =    -413.457339
------------ Step            620 ----- CPU =     37.53723 (sec) -------------
TotEng   =     173.484584 KinEng   =       0.000000 Temp     =       0.000000 
PotEng   =     173.484584 E_bond   =      31.085559 E_angle  =     128.210009 
E_dihed  =      24.378618 E_impro  =       0.491077 E_vdwl   =      -8.375020 
E_coul   =      23.813745 E_long   =     -26.119403 Press    =    -519.169498
------------ Step            630 ----- CPU =     38.42377 (sec) -------------
TotEng   =     173.285593 KinEng   =       0.000000 Temp     =       0.000000 
PotEng   =     173.285593 E_bond   =      31.085559 E_angle  =     128.210009 
E_dihed  =      24.378618 E_impro  =       0.491077 E_vdwl   =      -8.646166 
E_coul   =      23.895793 E_long   =     -26.129296 Press    =    -262.487758
------------ Step            640 ----- CPU =     39.31043 (sec) -------------
TotEng   =     173.338394 KinEng   =       0.000000 Temp     =       0.000000 
PotEng   =     173.338394 E_bond   =      31.085559 E_angle  =     128.210009 
E_dihed  =      24.378618 E_impro  =       0.491077 E_vdwl   =      -8.508319 
E_coul   =      23.801610 E_long   =     -26.120159 Press    =    -404.954641
------------ Step            650 ----- CPU =     40.19609 (sec) -------------
TotEng   =     173.149675 KinEng   =       0.000000 Temp     =       0.000000 
PotEng   =     173.149675 E_bond   =      31.085559 E_angle  =     128.210009 
E_dihed  =      24.378618 E_impro  =       0.491077 E_vdwl   =      -8.402122 
E_coul   =      23.507415 E_long   =     -26.120880 Press    =    -410.624787
------------ Step            660 ----- CPU =      41.0839 (sec) -------------
TotEng   =     173.497992 KinEng   =       0.000000 Temp     =       0.000000 
PotEng   =     173.497992 E_bond   =      31.085559 E_angle  =     128.210009 
E_dihed  =      24.378618 E_impro  =       0.491077 E_vdwl   =      -8.253070 
E_coul   =      23.709998 E_long   =     -26.124198 Press    =    -383.326529
------------ Step            670 ----- CPU =     41.96897 (sec) -------------
TotEng   =     174.442246 KinEng   =       0.000000 Temp     =       0.000000 
PotEng   =     174.442246 E_bond   =      31.085559 E_angle  =     128.210009 
E_dihed  =      24.378618 E_impro  =       0.491077 E_vdwl   =      -7.278994 
E_coul   =      23.672558 E_long   =     -26.116580 Press    =    -442.327993
------------ Step            680 ----- CPU =     42.85606 (sec) -------------
TotEng   =     174.377376 KinEng   =       0.000000 Temp     =       0.000000 
PotEng   =     174.377376 E_bond   =      31.085559 E_angle  =     128.210009 
E_dihed  =      24.378618 E_impro  =       0.491077 E_vdwl   =      -7.189577 
E_coul   =      23.518511 E_long   =     -26.116821 Press    =    -469.772682
------------ Step            690 ----- CPU =      43.7449 (sec) -------------
TotEng   =     173.824248 KinEng   =       0.000000 Temp     =       0.000000 
PotEng   =     173.824248 E_bond   =      31.085559 E_angle  =     128.210009 
E_dihed  =      24.378618 E_impro  =       0.491077 E_vdwl   =      -8.068763 
E_coul   =      23.851534 E_long   =     -26.123785 Press    =    -358.081764
------------ Step            700 ----- CPU =     44.63371 (sec) -------------
TotEng   =     173.811266 KinEng   =       0.000000 Temp     =       0.000000 
PotEng   =     173.811266 E_bond   =      31.085559 E_angle  =     128.210009 
E_dihed  =      24.378618 E_impro  =       0.491077 E_vdwl   =      -7.819446 
E_coul   =      23.587315 E_long   =     -26.121866 Press    =    -436.953241
------------ Step            710 ----- CPU =      45.5215 (sec) -------------
TotEng   =     175.809471 KinEng   =       0.000000 Temp     =       0.000000 
PotEng   =     175.809471 E_bond   =      31.085559 E_angle  =     128.210009 
E_dihed  =      24.378618 E_impro  =       0.491077 E_vdwl   =      -5.594281 
E_coul   =      23.352594 E_long   =     -26.114105 Press    =    -513.129317
------------ Step            720 ----- CPU =     46.40959 (sec) -------------
TotEng   =     176.331728 KinEng   =       0.000000 Temp     =       0.000000 
PotEng   =     176.331728 E_bond   =      31.085559 E_angle  =     128.210009 
E_dihed  =      24.378618 E_impro  =       0.491077 E_vdwl   =      -5.344890 
E_coul   =      23.638085 E_long   =     -26.126730 Press    =    -304.443869
------------ Step            730 ----- CPU =     47.29639 (sec) -------------
TotEng   =     176.499833 KinEng   =       0.000000 Temp     =       0.000000 
PotEng   =     176.499833 E_bond   =      31.085559 E_angle  =     128.210009 
E_dihed  =      24.378618 E_impro  =       0.491077 E_vdwl   =      -5.299157 
E_coul   =      23.753539 E_long   =     -26.119812 Press    =    -436.209321
------------ Step            740 ----- CPU =     48.18192 (sec) -------------
TotEng   =     175.326288 KinEng   =       0.000000 Temp     =       0.000000 
PotEng   =     175.326288 E_bond   =      31.085559 E_angle  =     128.210009 
E_dihed  =      24.378618 E_impro  =       0.491077 E_vdwl   =      -6.517588 
E_coul   =      23.799560 E_long   =     -26.120946 Press    =    -447.773470
------------ Step            750 ----- CPU =     49.06594 (sec) -------------
TotEng   =     174.660805 KinEng   =       0.000000 Temp     =       0.000000 
PotEng   =     174.660805 E_bond   =      31.085559 E_angle  =     128.210009 
E_dihed  =      24.378618 E_impro  =       0.491077 E_vdwl   =      -7.165568 
E_coul   =      23.783468 E_long   =     -26.122357 Press    =    -431.838259
------------ Step            760 ----- CPU =     49.94957 (sec) -------------
TotEng   =     172.494402 KinEng   =       0.000000 Temp     =       0.000000 
PotEng   =     172.494402 E_bond   =      31.085559 E_angle  =     128.210009 
E_dihed  =      24.378618 E_impro  =       0.491077 E_vdwl   =      -9.100874 
E_coul   =      23.554178 E_long   =     -26.124164 Press    =    -384.575242
------------ Step            770 ----- CPU =     50.83481 (sec) -------------
TotEng   =     173.887359 KinEng   =       0.000000 Temp     =       0.000000 
PotEng   =     173.887359 E_bond   =      31.085559 E_angle  =     128.210009 
E_dihed  =      24.378618 E_impro  =       0.491077 E_vdwl   =      -7.378639 
E_coul   =      23.223835 E_long   =     -26.123099 Press    =    -376.961700
------------ Step            780 ----- CPU =     51.72027 (sec) -------------
TotEng   =     175.798713 KinEng   =       0.000000 Temp     =       0.000000 
PotEng   =     175.798713 E_bond   =      31.085559 E_angle  =     128.210009 
E_dihed  =      24.378618 E_impro  =       0.491077 E_vdwl   =      -5.518066 
E_coul   =      23.271067 E_long   =     -26.119550 Press    =    -381.267529
------------ Step            790 ----- CPU =     52.60476 (sec) -------------
TotEng   =     175.789045 KinEng   =       0.000000 Temp     =       0.000000 
PotEng   =     175.789045 E_bond   =      31.085559 E_angle  =     128.210009 
E_dihed  =      24.378618 E_impro  =       0.491077 E_vdwl   =      -5.701419 
E_coul   =      23.440312 E_long   =     -26.115110 Press    =    -457.086968
------------ Step            800 ----- CPU =     53.49097 (sec) -------------
TotEng   =     175.721288 KinEng   =       0.000000 Temp     =       0.000000 
PotEng   =     175.721288 E_bond   =      31.085559 E_angle  =     128.210009 
E_dihed  =      24.378618 E_impro  =       0.491077 E_vdwl   =      -5.920532 
E_coul   =      23.591704 E_long   =     -26.115147 Press    =    -457.807430
------------ Step            810 ----- CPU =     54.37577 (sec) -------------
TotEng   =     175.372046 KinEng   =       0.000000 Temp     =       0.000000 
PotEng   =     175.372046 E_bond   =      31.085559 E_angle  =     128.210009 
E_dihed  =      24.378618 E_impro  =       0.491077 E_vdwl   =      -5.989944 
E_coul   =      23.318579 E_long   =     -26.121851 Press    =    -341.834399
------------ Step            820 ----- CPU =      55.2619 (sec) -------------
TotEng   =     175.195825 KinEng   =       0.000000 Temp     =       0.000000 
PotEng   =     175.195825 E_bond   =      31.085559 E_angle  =     128.210009 
E_dihed  =      24.378618 E_impro  =       0.491077 E_vdwl   =      -6.605534 
E_coul   =      23.761509 E_long   =     -26.125412 Press    =    -342.245152
------------ Step            830 ----- CPU =     56.15004 (sec) -------------
TotEng   =     176.275251 KinEng   =       0.000000 Temp     =       0.000000 
PotEng   =     176.275251 E_bond   =      31.085559 E_angle  =     128.210009 
E_dihed  =      24.378618 E_impro  =       0.491077 E_vdwl   =      -5.384487 
E_coul   =      23.622078 E_long   =     -26.127602 Press    =    -386.668724
------------ Step            840 ----- CPU =     57.04033 (sec) -------------
TotEng   =     175.491129 KinEng   =       0.000000 Temp     =       0.000000 
PotEng   =     175.491129 E_bond   =      31.085559 E_angle  =     128.210009 
E_dihed  =      24.378618 E_impro  =       0.491077 E_vdwl   =      -6.231031 
E_coul   =      23.684920 E_long   =     -26.128022 Press    =    -305.745309
------------ Step            850 ----- CPU =     57.92789 (sec) -------------
TotEng   =     174.922771 KinEng   =       0.000000 Temp     =       0.000000 
PotEng   =     174.922771 E_bond   =      31.085559 E_angle  =     128.210009 
E_dihed  =      24.378618 E_impro  =       0.491077 E_vdwl   =      -6.496489 
E_coul   =      23.373025 E_long   =     -26.119026 Press    =    -383.290112
------------ Step            860 ----- CPU =     58.81926 (sec) -------------
TotEng   =     176.584661 KinEng   =       0.000000 Temp     =       0.000000 
PotEng   =     176.584661 E_bond   =      31.085559 E_angle  =     128.210009 
E_dihed  =      24.378618 E_impro  =       0.491077 E_vdwl   =      -4.994120 
E_coul   =      23.537255 E_long   =     -26.123736 Press    =    -427.065443
------------ Step            870 ----- CPU =     59.70425 (sec) -------------
TotEng   =     176.305629 KinEng   =       0.000000 Temp     =       0.000000 
PotEng   =     176.305629 E_bond   =      31.085559 E_angle  =     128.210009 
E_dihed  =      24.378618 E_impro  =       0.491077 E_vdwl   =      -4.705710 
E_coul   =      22.969149 E_long   =     -26.123072 Press    =    -338.801682
------------ Step            880 ----- CPU =     60.58396 (sec) -------------
TotEng   =     176.537828 KinEng   =       0.000000 Temp     =       0.000000 
PotEng   =     176.537828 E_bond   =      31.085559 E_angle  =     128.210009 
E_dihed  =      24.378618 E_impro  =       0.491077 E_vdwl   =      -4.544300 
E_coul   =      23.050691 E_long   =     -26.133825 Press    =    -260.984846
------------ Step            890 ----- CPU =     61.46262 (sec) -------------
TotEng   =     175.887188 KinEng   =       0.000000 Temp     =       0.000000 
PotEng   =     175.887188 E_bond   =      31.085559 E_angle  =     128.210009 
E_dihed  =      24.378618 E_impro  =       0.491077 E_vdwl   =      -5.159598 
E_coul   =      23.009762 E_long   =     -26.128239 Press    =    -253.531592
------------ Step            900 ----- CPU =     62.34138 (sec) -------------
TotEng   =     176.986255 KinEng   =       0.000000 Temp     =       0.000000 
PotEng   =     176.986255 E_bond   =      31.085559 E_angle  =     128.210009 
E_dihed  =      24.378618 E_impro  =       0.491077 E_vdwl   =      -3.899900 
E_coul   =      22.847417 E_long   =     -26.126525 Press    =    -228.653606
------------ Step            910 ----- CPU =     63.22349 (sec) -------------
TotEng   =     176.380134 KinEng   =       0.000000 Temp     =       0.000000 
PotEng   =     176.380134 E_bond   =      31.085559 E_angle  =     128.210009 
E_dihed  =      24.378618 E_impro  =       0.491077 E_vdwl   =      -5.275987 
E_coul   =      23.630391 E_long   =     -26.139532 Press    =    -272.918171
------------ Step            920 ----- CPU =     64.10304 (sec) -------------
TotEng   =     177.969326 KinEng   =       0.000000 Temp     =       0.000000 
PotEng   =     177.969326 E_bond   =      31.085559 E_angle  =     128.210009 
E_dihed  =      24.378618 E_impro  =       0.491077 E_vdwl   =      -3.583374 
E_coul   =      23.522141 E_long   =     -26.134703 Press    =    -259.663499
------------ Step            930 ----- CPU =     64.98207 (sec) -------------
TotEng   =     176.222097 KinEng   =       0.000000 Temp     =       0.000000 
PotEng   =     176.222097 E_bond   =      31.085559 E_angle  =     128.210009 
E_dihed  =      24.378618 E_impro  =       0.491077 E_vdwl   =      -5.345336 
E_coul   =      23.540997 E_long   =     -26.138827 Press    =    -313.359905
------------ Step            940 ----- CPU =     65.85741 (sec) -------------
TotEng   =     176.019787 KinEng   =       0.000000 Temp     =       0.000000 
PotEng   =     176.019787 E_bond   =      31.085559 E_angle  =     128.210009 
E_dihed  =      24.378618 E_impro  =       0.491077 E_vdwl   =      -5.338545 
E_coul   =      23.326131 E_long   =     -26.133062 Press    =    -415.385961
------------ Step            950 ----- CPU =     66.74125 (sec) -------------
TotEng   =     178.032356 KinEng   =       0.000000 Temp     =       0.000000 
PotEng   =     178.032356 E_bond   =      31.085559 E_angle  =     128.210009 
E_dihed  =      24.378618 E_impro  =       0.491077 E_vdwl   =      -3.580007 
E_coul   =      23.585588 E_long   =     -26.138487 Press    =    -457.026941
------------ Step            960 ----- CPU =      67.6214 (sec) -------------
TotEng   =     178.578505 KinEng   =       0.000000 Temp     =       0.000000 
PotEng   =     178.578505 E_bond   =      31.085559 E_angle  =     128.210009 
E_dihed  =      24.378618 E_impro  =       0.491077 E_vdwl   =      -2.923591 
E_coul   =      23.473379 E_long   =     -26.136546 Press    =    -328.959533
------------ Step            970 ----- CPU =     68.50091 (sec) -------------
TotEng   =     177.867242 KinEng   =       0.000000 Temp     =       0.000000 
PotEng   =     177.867242 E_bond   =      31.085559 E_angle  =     128.210009 
E_dihed  =      24.378618 E_impro  =       0.491077 E_vdwl   =      -3.641881 
E_coul   =      23.480074 E_long   =     -26.136213 Press    =    -293.461455
------------ Step            980 ----- CPU =     69.38319 (sec) -------------
TotEng   =     181.993646 KinEng   =       0.000000 Temp     =       0.000000 
PotEng   =     181.993646 E_bond   =      31.085559 E_angle  =     128.210009 
E_dihed  =      24.378618 E_impro  =       0.491077 E_vdwl   =       0.560967 
E_coul   =      23.407174 E_long   =     -26.139757 Press    =    -246.258467
------------ Step            990 ----- CPU =     70.26585 (sec) -------------
TotEng   =     176.935304 KinEng   =       0.000000 Temp     =       0.000000 
PotEng   =     176.935304 E_bond   =      31.085559 E_angle  =     128.210009 
E_dihed  =      24.378618 E_impro  =       0.491077 E_vdwl   =      -4.605558 
E_coul   =      23.498899 E_long   =     -26.123298 Press    =    -381.778338
------------ Step           1000 ----- CPU =     71.15056 (sec) -------------
TotEng   =     177.222600 KinEng   =       0.000000 Temp     =       0.000000 
PotEng   =     177.222600 E_bond   =      31.085559 E_angle  =     128.210009 
E_dihed  =      24.378618 E_impro  =       0.491077 E_vdwl   =      -4.288389 
E_coul   =      23.467972 E_long   =     -26.122245 Press    =    -433.832228
------------ Step           1010 ----- CPU =      72.0257 (sec) -------------
TotEng   =     176.657725 KinEng   =       0.000000 Temp     =       0.000000 
PotEng   =     176.657725 E_bond   =      31.085559 E_angle  =     128.210009 
E_dihed  =      24.378618 E_impro  =       0.491077 E_vdwl   =      -4.847942 
E_coul   =      23.467807 E_long   =     -26.127402 Press    =    -405.721537
------------ Step           1020 ----- CPU =     72.90782 (sec) -------------
TotEng   =     177.627047 KinEng   =       0.000000 Temp     =       0.000000 
PotEng   =     177.627047 E_bond   =      31.085559 E_angle  =     128.210009 
E_dihed  =      24.378618 E_impro  =       0.491077 E_vdwl   =      -3.851652 
E_coul   =      23.440498 E_long   =     -26.127061 Press    =    -379.127156
------------ Step           1030 ----- CPU =     73.78581 (sec) -------------
TotEng   =     177.506054 KinEng   =       0.000000 Temp     =       0.000000 
PotEng   =     177.506054 E_bond   =      31.085559 E_angle  =     128.210009 
E_dihed  =      24.378618 E_impro  =       0.491077 E_vdwl   =      -3.991704 
E_coul   =      23.458715 E_long   =     -26.126219 Press    =    -450.273980
------------ Step           1040 ----- CPU =     74.66755 (sec) -------------
TotEng   =     177.675733 KinEng   =       0.000000 Temp     =       0.000000 
PotEng   =     177.675733 E_bond   =      31.085559 E_angle  =     128.210009 
E_dihed  =      24.378618 E_impro  =       0.491077 E_vdwl   =      -3.962104 
E_coul   =      23.595416 E_long   =     -26.122840 Press    =    -441.038683
------------ Step           1050 ----- CPU =     75.55643 (sec) -------------
TotEng   =     177.388381 KinEng   =       0.000000 Temp     =       0.000000 
PotEng   =     177.388381 E_bond   =      31.085559 E_angle  =     128.210009 
E_dihed  =      24.378618 E_impro  =       0.491077 E_vdwl   =      -3.741163 
E_coul   =      23.089408 E_long   =     -26.125126 Press    =    -251.557490
------------ Step           1060 ----- CPU =      76.4469 (sec) -------------
TotEng   =     176.799051 KinEng   =       0.000000 Temp     =       0.000000 
PotEng   =     176.799051 E_bond   =      31.085559 E_angle  =     128.210009 
E_dihed  =      24.378618 E_impro  =       0.491077 E_vdwl   =      -4.176944 
E_coul   =      22.934807 E_long   =     -26.124074 Press    =    -365.027495
------------ Step           1070 ----- CPU =     77.33226 (sec) -------------
TotEng   =     177.393527 KinEng   =       0.000000 Temp     =       0.000000 
PotEng   =     177.393527 E_bond   =      31.085559 E_angle  =     128.210009 
E_dihed  =      24.378618 E_impro  =       0.491077 E_vdwl   =      -3.456200 
E_coul   =      22.818504 E_long   =     -26.134040 Press    =    -463.361895
------------ Step           1080 ----- CPU =     78.21917 (sec) -------------
TotEng   =     177.528047 KinEng   =       0.000000 Temp     =       0.000000 
PotEng   =     177.528047 E_bond   =      31.085559 E_angle  =     128.210009 
E_dihed  =      24.378618 E_impro  =       0.491077 E_vdwl   =      -3.599955 
E_coul   =      23.103504 E_long   =     -26.140764 Press    =    -382.560962
------------ Step           1090 ----- CPU =     79.11028 (sec) -------------
TotEng   =     176.894996 KinEng   =       0.000000 Temp     =       0.000000 
PotEng   =     176.894996 E_bond   =      31.085559 E_angle  =     128.210009 
E_dihed  =      24.378618 E_impro  =       0.491077 E_vdwl   =      -4.249544 
E_coul   =      23.119832 E_long   =     -26.140554 Press    =    -210.059954
------------ Step           1100 ----- CPU =     80.00287 (sec) -------------
TotEng   =     177.633379 KinEng   =       0.000000 Temp     =       0.000000 
PotEng   =     177.633379 E_bond   =      31.085559 E_angle  =     128.210009 
E_dihed  =      24.378618 E_impro  =       0.491077 E_vdwl   =      -3.179619 
E_coul   =      22.781971 E_long   =     -26.134236 Press    =    -423.805974
------------ Step           1110 ----- CPU =     80.89477 (sec) -------------
TotEng   =     181.122763 KinEng   =       0.000000 Temp     =       0.000000 
PotEng   =     181.122763 E_bond   =      31.085559 E_angle  =     128.210009 
E_dihed  =      24.378618 E_impro  =       0.491077 E_vdwl   =      -0.474657 
E_coul   =      23.547224 E_long   =     -26.115067 Press    =    -322.409550
------------ Step           1120 ----- CPU =      81.7899 (sec) -------------
TotEng   =     177.118842 KinEng   =       0.000000 Temp     =       0.000000 
PotEng   =     177.118842 E_bond   =      31.085559 E_angle  =     128.210009 
E_dihed  =      24.378618 E_impro  =       0.491077 E_vdwl   =      -3.975480 
E_coul   =      23.064285 E_long   =     -26.135226 Press    =    -378.899819
------------ Step           1130 ----- CPU =     82.68603 (sec) -------------
TotEng   =     176.391327 KinEng   =       0.000000 Temp     =       0.000000 
PotEng   =     176.391327 E_bond   =      31.085559 E_angle  =     128.210009 
E_dihed  =      24.378618 E_impro  =       0.491077 E_vdwl   =      -4.651226 
E_coul   =      23.012278 E_long   =     -26.134988 Press    =    -430.742010
------------ Step           1140 ----- CPU =     83.58279 (sec) -------------
TotEng   =     178.029022 KinEng   =       0.000000 Temp     =       0.000000 
PotEng   =     178.029022 E_bond   =      31.085559 E_angle  =     128.210009 
E_dihed  =      24.378618 E_impro  =       0.491077 E_vdwl   =      -3.110501 
E_coul   =      23.104202 E_long   =     -26.129941 Press    =    -454.020581
------------ Step           1150 ----- CPU =     84.47225 (sec) -------------
TotEng   =     179.775421 KinEng   =       0.000000 Temp     =       0.000000 
PotEng   =     179.775421 E_bond   =      31.085559 E_angle  =     128.210009 
E_dihed  =      24.378618 E_impro  =       0.491077 E_vdwl   =      -1.750371 
E_coul   =      23.489482 E_long   =     -26.128952 Press    =    -396.431128
------------ Step           1160 ----- CPU =     85.36231 (sec) -------------
TotEng   =     179.043437 KinEng   =       0.000000 Temp     =       0.000000 
PotEng   =     179.043437 E_bond   =      31.085559 E_angle  =     128.210009 
E_dihed  =      24.378618 E_impro  =       0.491077 E_vdwl   =      -2.263231 
E_coul   =      23.274993 E_long   =     -26.133586 Press    =    -422.225432
------------ Step           1170 ----- CPU =     86.25417 (sec) -------------
TotEng   =     179.944684 KinEng   =       0.000000 Temp     =       0.000000 
PotEng   =     179.944684 E_bond   =      31.085559 E_angle  =     128.210009 
E_dihed  =      24.378618 E_impro  =       0.491077 E_vdwl   =      -1.539793 
E_coul   =      23.432588 E_long   =     -26.113374 Press    =    -428.794957
------------ Step           1180 ----- CPU =     87.14746 (sec) -------------
TotEng   =     179.566565 KinEng   =       0.000000 Temp     =       0.000000 
PotEng   =     179.566565 E_bond   =      31.085559 E_angle  =     128.210009 
E_dihed  =      24.378618 E_impro  =       0.491077 E_vdwl   =      -1.995008 
E_coul   =      23.521576 E_long   =     -26.125265 Press    =    -385.046229
------------ Step           1190 ----- CPU =     88.03796 (sec) -------------
TotEng   =     183.538734 KinEng   =       0.000000 Temp     =       0.000000 
PotEng   =     183.538734 E_bond   =      31.085559 E_angle  =     128.210009 
E_dihed  =      24.378618 E_impro  =       0.491077 E_vdwl   =       2.092894 
E_coul   =      23.416978 E_long   =     -26.136400 Press    =    -433.065826
------------ Step           1200 ----- CPU =     88.93206 (sec) -------------
TotEng   =     178.959507 KinEng   =       0.000000 Temp     =       0.000000 
PotEng   =     178.959507 E_bond   =      31.085559 E_angle  =     128.210009 
E_dihed  =      24.378618 E_impro  =       0.491077 E_vdwl   =      -2.514397 
E_coul   =      23.427362 E_long   =     -26.118721 Press    =    -417.886480
------------ Step           1210 ----- CPU =     89.82053 (sec) -------------
TotEng   =     178.292131 KinEng   =       0.000000 Temp     =       0.000000 
PotEng   =     178.292131 E_bond   =      31.085559 E_angle  =     128.210009 
E_dihed  =      24.378618 E_impro  =       0.491077 E_vdwl   =      -3.142878 
E_coul   =      23.393799 E_long   =     -26.124052 Press    =    -363.359276
------------ Step           1220 ----- CPU =     90.70605 (sec) -------------
TotEng   =     179.845274 KinEng   =       0.000000 Temp     =       0.000000 
PotEng   =     179.845274 E_bond   =      31.085559 E_angle  =     128.210009 
E_dihed  =      24.378618 E_impro  =       0.491077 E_vdwl   =      -1.660901 
E_coul   =      23.463757 E_long   =     -26.122844 Press    =    -344.122721
------------ Step           1230 ----- CPU =     91.59262 (sec) -------------
TotEng   =     179.785533 KinEng   =       0.000000 Temp     =       0.000000 
PotEng   =     179.785533 E_bond   =      31.085559 E_angle  =     128.210009 
E_dihed  =      24.378618 E_impro  =       0.491077 E_vdwl   =      -1.732769 
E_coul   =      23.476040 E_long   =     -26.123000 Press    =    -300.725009
------------ Step           1240 ----- CPU =     92.47915 (sec) -------------
TotEng   =     178.442430 KinEng   =       0.000000 Temp     =       0.000000 
PotEng   =     178.442430 E_bond   =      31.085559 E_angle  =     128.210009 
E_dihed  =      24.378618 E_impro  =       0.491077 E_vdwl   =      -3.056259 
E_coul   =      23.457364 E_long   =     -26.123937 Press    =    -327.344169
------------ Step           1250 ----- CPU =       93.373 (sec) -------------
TotEng   =     175.512110 KinEng   =       0.000000 Temp     =       0.000000 
PotEng   =     175.512110 E_bond   =      31.085559 E_angle  =     128.210009 
E_dihed  =      24.378618 E_impro  =       0.491077 E_vdwl   =      -6.087447 
E_coul   =      23.557759 E_long   =     -26.123464 Press    =    -338.922812
------------ Step           1260 ----- CPU =     94.25779 (sec) -------------
TotEng   =     176.580774 KinEng   =       0.000000 Temp     =       0.000000 
PotEng   =     176.580774 E_bond   =      31.085559 E_angle  =     128.210009 
E_dihed  =      24.378618 E_impro  =       0.491077 E_vdwl   =      -4.913806 
E_coul   =      23.433193 E_long   =     -26.103875 Press    =    -321.990160
------------ Step           1270 ----- CPU =     95.14109 (sec) -------------
TotEng   =     176.649315 KinEng   =       0.000000 Temp     =       0.000000 
PotEng   =     176.649315 E_bond   =      31.085559 E_angle  =     128.210009 
E_dihed  =      24.378618 E_impro  =       0.491077 E_vdwl   =      -4.896725 
E_coul   =      23.489629 E_long   =     -26.108852 Press    =    -388.700471
------------ Step           1280 ----- CPU =     96.02583 (sec) -------------
TotEng   =     178.096079 KinEng   =       0.000000 Temp     =       0.000000 
PotEng   =     178.096079 E_bond   =      31.085559 E_angle  =     128.210009 
E_dihed  =      24.378618 E_impro  =       0.491077 E_vdwl   =      -3.337217 
E_coul   =      23.388783 E_long   =     -26.120750 Press    =    -340.798885
------------ Step           1290 ----- CPU =     96.91122 (sec) -------------
TotEng   =     177.672985 KinEng   =       0.000000 Temp     =       0.000000 
PotEng   =     177.672985 E_bond   =      31.085559 E_angle  =     128.210009 
E_dihed  =      24.378618 E_impro  =       0.491077 E_vdwl   =      -3.965697 
E_coul   =      23.602716 E_long   =     -26.129295 Press    =    -458.140264
------------ Step           1300 ----- CPU =     97.80101 (sec) -------------
TotEng   =     178.248795 KinEng   =       0.000000 Temp     =       0.000000 
PotEng   =     178.248795 E_bond   =      31.085559 E_angle  =     128.210009 
E_dihed  =      24.378618 E_impro  =       0.491077 E_vdwl   =      -3.303292 
E_coul   =      23.522717 E_long   =     -26.135892 Press    =    -289.914891
------------ Step           1310 ----- CPU =     98.69648 (sec) -------------
TotEng   =     177.399653 KinEng   =       0.000000 Temp     =       0.000000 
PotEng   =     177.399653 E_bond   =      31.085559 E_angle  =     128.210009 
E_dihed  =      24.378618 E_impro  =       0.491077 E_vdwl   =      -4.301164 
E_coul   =      23.666698 E_long   =     -26.131144 Press    =    -388.859297
------------ Step           1320 ----- CPU =     99.58747 (sec) -------------
TotEng   =     178.090893 KinEng   =       0.000000 Temp     =       0.000000 
PotEng   =     178.090893 E_bond   =      31.085559 E_angle  =     128.210009 
E_dihed  =      24.378618 E_impro  =       0.491077 E_vdwl   =      -3.506734 
E_coul   =      23.562318 E_long   =     -26.129953 Press    =    -313.146318
------------ Step           1330 ----- CPU =     100.4755 (sec) -------------
TotEng   =     177.224799 KinEng   =       0.000000 Temp     =       0.000000 
PotEng   =     177.224799 E_bond   =      31.085559 E_angle  =     128.210009 
E_dihed  =      24.378618 E_impro  =       0.491077 E_vdwl   =      -4.256193 
E_coul   =      23.427911 E_long   =     -26.112181 Press    =    -250.709943
------------ Step           1340 ----- CPU =     101.3578 (sec) -------------
TotEng   =     177.652798 KinEng   =       0.000000 Temp     =       0.000000 
PotEng   =     177.652798 E_bond   =      31.085559 E_angle  =     128.210009 
E_dihed  =      24.378618 E_impro  =       0.491077 E_vdwl   =      -3.788832 
E_coul   =      23.388961 E_long   =     -26.112593 Press    =    -263.950072
------------ Step           1350 ----- CPU =     102.2426 (sec) -------------
TotEng   =     179.421033 KinEng   =       0.000000 Temp     =       0.000000 
PotEng   =     179.421033 E_bond   =      31.085559 E_angle  =     128.210009 
E_dihed  =      24.378618 E_impro  =       0.491077 E_vdwl   =      -2.437333 
E_coul   =      23.831113 E_long   =     -26.138009 Press    =    -365.575861
------------ Step           1360 ----- CPU =     103.1314 (sec) -------------
TotEng   =     177.191487 KinEng   =       0.000000 Temp     =       0.000000 
PotEng   =     177.191487 E_bond   =      31.085559 E_angle  =     128.210009 
E_dihed  =      24.378618 E_impro  =       0.491077 E_vdwl   =      -4.476160 
E_coul   =      23.603462 E_long   =     -26.101076 Press    =    -339.008629
------------ Step           1370 ----- CPU =     104.0151 (sec) -------------
TotEng   =     179.477454 KinEng   =       0.000000 Temp     =       0.000000 
PotEng   =     179.477454 E_bond   =      31.085559 E_angle  =     128.210009 
E_dihed  =      24.378618 E_impro  =       0.491077 E_vdwl   =      -2.483445 
E_coul   =      23.895133 E_long   =     -26.099496 Press    =    -115.749811
------------ Step           1380 ----- CPU =      104.898 (sec) -------------
TotEng   =     178.284508 KinEng   =       0.000000 Temp     =       0.000000 
PotEng   =     178.284508 E_bond   =      31.085559 E_angle  =     128.210009 
E_dihed  =      24.378618 E_impro  =       0.491077 E_vdwl   =      -3.438531 
E_coul   =      23.656599 E_long   =     -26.098822 Press    =    -421.068575
------------ Step           1390 ----- CPU =     105.7828 (sec) -------------
TotEng   =     178.998020 KinEng   =       0.000000 Temp     =       0.000000 
PotEng   =     178.998020 E_bond   =      31.085559 E_angle  =     128.210009 
E_dihed  =      24.378618 E_impro  =       0.491077 E_vdwl   =      -2.642730 
E_coul   =      23.585192 E_long   =     -26.109704 Press    =    -373.242697
------------ Step           1400 ----- CPU =     106.6699 (sec) -------------
TotEng   =     178.189416 KinEng   =       0.000000 Temp     =       0.000000 
PotEng   =     178.189416 E_bond   =      31.085559 E_angle  =     128.210009 
E_dihed  =      24.378618 E_impro  =       0.491077 E_vdwl   =      -3.353478 
E_coul   =      23.485815 E_long   =     -26.108183 Press    =    -373.765732
------------ Step           1410 ----- CPU =     107.5532 (sec) -------------
TotEng   =     179.764763 KinEng   =       0.000000 Temp     =       0.000000 
PotEng   =     179.764763 E_bond   =      31.085559 E_angle  =     128.210009 
E_dihed  =      24.378618 E_impro  =       0.491077 E_vdwl   =      -1.876969 
E_coul   =      23.583842 E_long   =     -26.107373 Press    =    -454.587617
------------ Step           1420 ----- CPU =     108.4359 (sec) -------------
TotEng   =     180.450223 KinEng   =       0.000000 Temp     =       0.000000 
PotEng   =     180.450223 E_bond   =      31.085559 E_angle  =     128.210009 
E_dihed  =      24.378618 E_impro  =       0.491077 E_vdwl   =      -1.193776 
E_coul   =      23.589279 E_long   =     -26.110542 Press    =    -461.756282
------------ Step           1430 ----- CPU =      109.318 (sec) -------------
TotEng   =     179.522714 KinEng   =       0.000000 Temp     =       0.000000 
PotEng   =     179.522714 E_bond   =      31.085559 E_angle  =     128.210009 
E_dihed  =      24.378618 E_impro  =       0.491077 E_vdwl   =      -2.121342 
E_coul   =      23.592755 E_long   =     -26.113961 Press    =    -428.111001
------------ Step           1440 ----- CPU =     110.2022 (sec) -------------
TotEng   =     181.267987 KinEng   =       0.000000 Temp     =       0.000000 
PotEng   =     181.267987 E_bond   =      31.085559 E_angle  =     128.210009 
E_dihed  =      24.378618 E_impro  =       0.491077 E_vdwl   =      -0.620166 
E_coul   =      23.834575 E_long   =     -26.111684 Press    =     -96.794766
------------ Step           1450 ----- CPU =     111.0864 (sec) -------------
TotEng   =     181.015427 KinEng   =       0.000000 Temp     =       0.000000 
PotEng   =     181.015427 E_bond   =      31.085559 E_angle  =     128.210009 
E_dihed  =      24.378618 E_impro  =       0.491077 E_vdwl   =      -0.687887 
E_coul   =      23.649860 E_long   =     -26.111808 Press    =    -234.017680
------------ Step           1460 ----- CPU =      111.968 (sec) -------------
TotEng   =     179.498628 KinEng   =       0.000000 Temp     =       0.000000 
PotEng   =     179.498628 E_bond   =      31.085559 E_angle  =     128.210009 
E_dihed  =      24.378618 E_impro  =       0.491077 E_vdwl   =      -1.961903 
E_coul   =      23.414410 E_long   =     -26.119141 Press    =    -391.028764
------------ Step           1470 ----- CPU =     112.8503 (sec) -------------
TotEng   =     177.817741 KinEng   =       0.000000 Temp     =       0.000000 
PotEng   =     177.817741 E_bond   =      31.085559 E_angle  =     128.210009 
E_dihed  =      24.378618 E_impro  =       0.491077 E_vdwl   =      -3.656367 
E_coul   =      23.433879 E_long   =     -26.125033 Press    =    -364.578255
------------ Step           1480 ----- CPU =     113.7307 (sec) -------------
TotEng   =     178.863859 KinEng   =       0.000000 Temp     =       0.000000 
PotEng   =     178.863859 E_bond   =      31.085559 E_angle  =     128.210009 
E_dihed  =      24.378618 E_impro  =       0.491077 E_vdwl   =      -3.102227 
E_coul   =      23.874826 E_long   =     -26.074002 Press    =    -358.715281
------------ Step           1490 ----- CPU =     114.6088 (sec) -------------
TotEng   =     178.650612 KinEng   =       0.000000 Temp     =       0.000000 
PotEng   =     178.650612 E_bond   =      31.085559 E_angle  =     128.210009 
E_dihed  =      24.378618 E_impro  =       0.491077 E_vdwl   =      -3.326517 
E_coul   =      23.885322 E_long   =     -26.073456 Press    =    -338.403460
------------ Step           1500 ----- CPU =     115.4823 (sec) -------------
TotEng   =     180.422100 KinEng   =       0.000000 Temp     =       0.000000 
PotEng   =     180.422100 E_bond   =      31.085559 E_angle  =     128.210009 
E_dihed  =      24.378618 E_impro  =       0.491077 E_vdwl   =      -1.598673 
E_coul   =      23.914256 E_long   =     -26.058744 Press    =    -292.723120
------------ Step           1510 ----- CPU =     116.3614 (sec) -------------
TotEng   =     179.652210 KinEng   =       0.000000 Temp     =       0.000000 
PotEng   =     179.652210 E_bond   =      31.085559 E_angle  =     128.210009 
E_dihed  =      24.378618 E_impro  =       0.491077 E_vdwl   =      -2.297187 
E_coul   =      23.856497 E_long   =     -26.072362 Press    =    -258.914030
------------ Step           1520 ----- CPU =     117.2371 (sec) -------------
TotEng   =     180.536024 KinEng   =       0.000000 Temp     =       0.000000 
PotEng   =     180.536024 E_bond   =      31.085559 E_angle  =     128.210009 
E_dihed  =      24.378618 E_impro  =       0.491077 E_vdwl   =      -1.211075 
E_coul   =      23.650709 E_long   =     -26.068873 Press    =    -368.510233
------------ Step           1530 ----- CPU =     118.1173 (sec) -------------
TotEng   =     179.956131 KinEng   =       0.000000 Temp     =       0.000000 
PotEng   =     179.956131 E_bond   =      31.085559 E_angle  =     128.210009 
E_dihed  =      24.378618 E_impro  =       0.491077 E_vdwl   =      -2.068542 
E_coul   =      23.923306 E_long   =     -26.063894 Press    =    -359.751101
------------ Step           1540 ----- CPU =     118.9928 (sec) -------------
TotEng   =     180.599742 KinEng   =       0.000000 Temp     =       0.000000 
PotEng   =     180.599742 E_bond   =      31.085559 E_angle  =     128.210009 
E_dihed  =      24.378618 E_impro  =       0.491077 E_vdwl   =      -1.332038 
E_coul   =      23.828547 E_long   =     -26.062030 Press    =    -357.020278
------------ Step           1550 ----- CPU =     119.8667 (sec) -------------
TotEng   =     182.342540 KinEng   =       0.000000 Temp     =       0.000000 
PotEng   =     182.342540 E_bond   =      31.085559 E_angle  =     128.210009 
E_dihed  =      24.378618 E_impro  =       0.491077 E_vdwl   =       0.551785 
E_coul   =      23.681400 E_long   =     -26.055907 Press    =    -312.704090
------------ Step           1560 ----- CPU =     120.7343 (sec) -------------
TotEng   =     182.428292 KinEng   =       0.000000 Temp     =       0.000000 
PotEng   =     182.428292 E_bond   =      31.085559 E_angle  =     128.210009 
E_dihed  =      24.378618 E_impro  =       0.491077 E_vdwl   =       1.021442 
E_coul   =      23.294234 E_long   =     -26.052647 Press    =    -350.774368
------------ Step           1570 ----- CPU =      121.609 (sec) -------------
TotEng   =     185.236932 KinEng   =       0.000000 Temp     =       0.000000 
PotEng   =     185.236932 E_bond   =      31.085559 E_angle  =     128.210009 
E_dihed  =      24.378618 E_impro  =       0.491077 E_vdwl   =       3.378784 
E_coul   =      23.777152 E_long   =     -26.084266 Press    =    -408.141272
------------ Step           1580 ----- CPU =     122.4854 (sec) -------------
TotEng   =     182.294286 KinEng   =       0.000000 Temp     =       0.000000 
PotEng   =     182.294286 E_bond   =      31.085559 E_angle  =     128.210009 
E_dihed  =      24.378618 E_impro  =       0.491077 E_vdwl   =       0.691888 
E_coul   =      23.489856 E_long   =     -26.052720 Press    =    -286.322369
------------ Step           1590 ----- CPU =     123.3555 (sec) -------------
TotEng   =     182.966333 KinEng   =       0.000000 Temp     =       0.000000 
PotEng   =     182.966333 E_bond   =      31.085559 E_angle  =     128.210009 
E_dihed  =      24.378618 E_impro  =       0.491077 E_vdwl   =       1.325945 
E_coul   =      23.527245 E_long   =     -26.052119 Press    =    -309.206917
[...]
E_dihed  =      24.378618 E_impro  =       0.491077 E_vdwl   =      -7.919232 
E_coul   =      23.780550 E_long   =     -26.142326 Press    =    -401.825202
------------ Step           9730 ----- CPU =     820.0922 (sec) -------------
TotEng   =     173.275092 KinEng   =       0.000000 Temp     =       0.000000 
PotEng   =     173.275092 E_bond   =      31.085559 E_angle  =     128.210009 
E_dihed  =      24.378618 E_impro  =       0.491077 E_vdwl   =      -8.472421 
E_coul   =      23.729804 E_long   =     -26.147553 Press    =    -466.313922
------------ Step           9740 ----- CPU =     820.9781 (sec) -------------
TotEng   =     174.620494 KinEng   =       0.000000 Temp     =       0.000000 
PotEng   =     174.620494 E_bond   =      31.085559 E_angle  =     128.210009 
E_dihed  =      24.378618 E_impro  =       0.491077 E_vdwl   =      -7.151712 
E_coul   =      23.746748 E_long   =     -26.139804 Press    =    -441.038141
------------ Step           9750 ----- CPU =     821.8629 (sec) -------------
TotEng   =     175.027411 KinEng   =       0.000000 Temp     =       0.000000 
PotEng   =     175.027411 E_bond   =      31.085559 E_angle  =     128.210009 
E_dihed  =      24.378618 E_impro  =       0.491077 E_vdwl   =      -6.716815 
E_coul   =      23.715608 E_long   =     -26.136644 Press    =    -439.040287
------------ Step           9760 ----- CPU =     822.7483 (sec) -------------
TotEng   =     174.480445 KinEng   =       0.000000 Temp     =       0.000000 
PotEng   =     174.480445 E_bond   =      31.085559 E_angle  =     128.210009 
E_dihed  =      24.378618 E_impro  =       0.491077 E_vdwl   =      -7.452034 
E_coul   =      23.908125 E_long   =     -26.140908 Press    =    -366.446507
------------ Step           9770 ----- CPU =     823.6318 (sec) -------------
TotEng   =     174.186593 KinEng   =       0.000000 Temp     =       0.000000 
PotEng   =     174.186593 E_bond   =      31.085559 E_angle  =     128.210009 
E_dihed  =      24.378618 E_impro  =       0.491077 E_vdwl   =      -7.722251 
E_coul   =      23.895716 E_long   =     -26.152134 Press    =    -332.655637
------------ Step           9780 ----- CPU =     824.5181 (sec) -------------
TotEng   =     175.857834 KinEng   =       0.000000 Temp     =       0.000000 
PotEng   =     175.857834 E_bond   =      31.085559 E_angle  =     128.210009 
E_dihed  =      24.378618 E_impro  =       0.491077 E_vdwl   =      -5.860299 
E_coul   =      23.697670 E_long   =     -26.144798 Press    =    -423.600151
------------ Step           9790 ----- CPU =     825.4031 (sec) -------------
TotEng   =     176.929763 KinEng   =       0.000000 Temp     =       0.000000 
PotEng   =     176.929763 E_bond   =      31.085559 E_angle  =     128.210009 
E_dihed  =      24.378618 E_impro  =       0.491077 E_vdwl   =      -4.871832 
E_coul   =      23.803912 E_long   =     -26.167580 Press    =    -406.351741
------------ Step           9800 ----- CPU =     826.2886 (sec) -------------
TotEng   =     174.035888 KinEng   =       0.000000 Temp     =       0.000000 
PotEng   =     174.035888 E_bond   =      31.085559 E_angle  =     128.210009 
E_dihed  =      24.378618 E_impro  =       0.491077 E_vdwl   =      -7.940098 
E_coul   =      23.958998 E_long   =     -26.148275 Press    =    -446.013522
------------ Step           9810 ----- CPU =      827.175 (sec) -------------
TotEng   =     175.298045 KinEng   =       0.000000 Temp     =       0.000000 
PotEng   =     175.298045 E_bond   =      31.085559 E_angle  =     128.210009 
E_dihed  =      24.378618 E_impro  =       0.491077 E_vdwl   =      -6.249777 
E_coul   =      23.534544 E_long   =     -26.151983 Press    =    -493.403290
------------ Step           9820 ----- CPU =     828.0618 (sec) -------------
TotEng   =     176.139585 KinEng   =       0.000000 Temp     =       0.000000 
PotEng   =     176.139585 E_bond   =      31.085559 E_angle  =     128.210009 
E_dihed  =      24.378618 E_impro  =       0.491077 E_vdwl   =      -5.680945 
E_coul   =      23.794619 E_long   =     -26.139352 Press    =    -330.028663
------------ Step           9830 ----- CPU =     828.9505 (sec) -------------
TotEng   =     173.998631 KinEng   =       0.000000 Temp     =       0.000000 
PotEng   =     173.998631 E_bond   =      31.085559 E_angle  =     128.210009 
E_dihed  =      24.378618 E_impro  =       0.491077 E_vdwl   =      -7.728925 
E_coul   =      23.711926 E_long   =     -26.149632 Press    =    -420.915974
------------ Step           9840 ----- CPU =     829.8391 (sec) -------------
TotEng   =     172.697348 KinEng   =       0.000000 Temp     =       0.000000 
PotEng   =     172.697348 E_bond   =      31.085559 E_angle  =     128.210009 
E_dihed  =      24.378618 E_impro  =       0.491077 E_vdwl   =      -9.133559 
E_coul   =      23.801787 E_long   =     -26.136141 Press    =    -341.599564
------------ Step           9850 ----- CPU =     830.7279 (sec) -------------
TotEng   =     172.897390 KinEng   =       0.000000 Temp     =       0.000000 
PotEng   =     172.897390 E_bond   =      31.085559 E_angle  =     128.210009 
E_dihed  =      24.378618 E_impro  =       0.491077 E_vdwl   =      -8.912067 
E_coul   =      23.778763 E_long   =     -26.134569 Press    =    -295.816309
------------ Step           9860 ----- CPU =     831.6196 (sec) -------------
TotEng   =     173.110177 KinEng   =       0.000000 Temp     =       0.000000 
PotEng   =     173.110177 E_bond   =      31.085559 E_angle  =     128.210009 
E_dihed  =      24.378618 E_impro  =       0.491077 E_vdwl   =      -8.670015 
E_coul   =      23.761222 E_long   =     -26.146292 Press    =    -385.193776
------------ Step           9870 ----- CPU =     832.5089 (sec) -------------
TotEng   =     173.576429 KinEng   =       0.000000 Temp     =       0.000000 
PotEng   =     173.576429 E_bond   =      31.085559 E_angle  =     128.210009 
E_dihed  =      24.378618 E_impro  =       0.491077 E_vdwl   =      -8.091529 
E_coul   =      23.651371 E_long   =     -26.148675 Press    =    -446.004084
------------ Step           9880 ----- CPU =     833.3977 (sec) -------------
TotEng   =     172.746810 KinEng   =       0.000000 Temp     =       0.000000 
PotEng   =     172.746810 E_bond   =      31.085559 E_angle  =     128.210009 
E_dihed  =      24.378618 E_impro  =       0.491077 E_vdwl   =      -8.975880 
E_coul   =      23.687798 E_long   =     -26.130370 Press    =    -464.406562
------------ Step           9890 ----- CPU =     834.2871 (sec) -------------
TotEng   =     174.218898 KinEng   =       0.000000 Temp     =       0.000000 
PotEng   =     174.218898 E_bond   =      31.085559 E_angle  =     128.210009 
E_dihed  =      24.378618 E_impro  =       0.491077 E_vdwl   =      -7.397115 
E_coul   =      23.581626 E_long   =     -26.130875 Press    =    -306.012756
------------ Step           9900 ----- CPU =     835.1773 (sec) -------------
TotEng   =     174.812492 KinEng   =       0.000000 Temp     =       0.000000 
PotEng   =     174.812492 E_bond   =      31.085559 E_angle  =     128.210009 
E_dihed  =      24.378618 E_impro  =       0.491077 E_vdwl   =      -7.070978 
E_coul   =      23.850573 E_long   =     -26.132365 Press    =    -507.457257
------------ Step           9910 ----- CPU =     836.0674 (sec) -------------
TotEng   =     173.516758 KinEng   =       0.000000 Temp     =       0.000000 
PotEng   =     173.516758 E_bond   =      31.085559 E_angle  =     128.210009 
E_dihed  =      24.378618 E_impro  =       0.491077 E_vdwl   =      -8.230874 
E_coul   =      23.713996 E_long   =     -26.131626 Press    =    -439.965253
------------ Step           9920 ----- CPU =     836.9595 (sec) -------------
TotEng   =     173.933818 KinEng   =       0.000000 Temp     =       0.000000 
PotEng   =     173.933818 E_bond   =      31.085559 E_angle  =     128.210009 
E_dihed  =      24.378618 E_impro  =       0.491077 E_vdwl   =      -7.808465 
E_coul   =      23.715846 E_long   =     -26.138824 Press    =    -351.551772
------------ Step           9930 ----- CPU =     837.8487 (sec) -------------
TotEng   =     173.562485 KinEng   =       0.000000 Temp     =       0.000000 
PotEng   =     173.562485 E_bond   =      31.085559 E_angle  =     128.210009 
E_dihed  =      24.378618 E_impro  =       0.491077 E_vdwl   =      -8.017845 
E_coul   =      23.554829 E_long   =     -26.139761 Press    =    -422.421151
------------ Step           9940 ----- CPU =     838.7391 (sec) -------------
TotEng   =     177.776378 KinEng   =       0.000000 Temp     =       0.000000 
PotEng   =     177.776378 E_bond   =      31.085559 E_angle  =     128.210009 
E_dihed  =      24.378618 E_impro  =       0.491077 E_vdwl   =      -4.038127 
E_coul   =      23.788351 E_long   =     -26.139108 Press    =    -137.711073
------------ Step           9950 ----- CPU =     839.6272 (sec) -------------
TotEng   =     173.623758 KinEng   =       0.000000 Temp     =       0.000000 
PotEng   =     173.623758 E_bond   =      31.085559 E_angle  =     128.210009 
E_dihed  =      24.378618 E_impro  =       0.491077 E_vdwl   =      -7.974716 
E_coul   =      23.569737 E_long   =     -26.136526 Press    =    -275.811432
------------ Step           9960 ----- CPU =     840.5163 (sec) -------------
TotEng   =     173.093779 KinEng   =       0.000000 Temp     =       0.000000 
PotEng   =     173.093779 E_bond   =      31.085559 E_angle  =     128.210009 
E_dihed  =      24.378618 E_impro  =       0.491077 E_vdwl   =      -8.606208 
E_coul   =      23.670143 E_long   =     -26.135419 Press    =    -421.328080
------------ Step           9970 ----- CPU =     841.4059 (sec) -------------
TotEng   =     175.331766 KinEng   =       0.000000 Temp     =       0.000000 
PotEng   =     175.331766 E_bond   =      31.085559 E_angle  =     128.210009 
E_dihed  =      24.378618 E_impro  =       0.491077 E_vdwl   =      -6.386857 
E_coul   =      23.689517 E_long   =     -26.136156 Press    =    -336.345428
------------ Step           9980 ----- CPU =     842.2952 (sec) -------------
TotEng   =     173.512387 KinEng   =       0.000000 Temp     =       0.000000 
PotEng   =     173.512387 E_bond   =      31.085559 E_angle  =     128.210009 
E_dihed  =      24.378618 E_impro  =       0.491077 E_vdwl   =      -8.250559 
E_coul   =      23.724890 E_long   =     -26.127206 Press    =    -399.680900
------------ Step           9990 ----- CPU =     843.1875 (sec) -------------
TotEng   =     174.303641 KinEng   =       0.000000 Temp     =       0.000000 
PotEng   =     174.303641 E_bond   =      31.085559 E_angle  =     128.210009 
E_dihed  =      24.378618 E_impro  =       0.491077 E_vdwl   =      -7.414336 
E_coul   =      23.678653 E_long   =     -26.125938 Press    =    -425.057870
------------ Step          10000 ----- CPU =     844.0815 (sec) -------------
TotEng   =     176.095409 KinEng   =       0.000000 Temp     =       0.000000 
PotEng   =     176.095409 E_bond   =      31.085559 E_angle  =     128.210009 
E_dihed  =      24.378618 E_impro  =       0.491077 E_vdwl   =      -5.572860 
E_coul   =      23.632307 E_long   =     -26.129300 Press    =    -205.761136
------------ Step          10010 ----- CPU =     844.9582 (sec) -------------
TotEng   =     174.859007 KinEng   =       0.000000 Temp     =       0.000000 
PotEng   =     174.859007 E_bond   =      31.085559 E_angle  =     128.210009 
E_dihed  =      24.378618 E_impro  =       0.491077 E_vdwl   =      -6.760078 
E_coul   =      23.587667 E_long   =     -26.133844 Press    =    -422.812512
------------ Step          10020 ----- CPU =     845.8358 (sec) -------------
TotEng   =     173.937420 KinEng   =       0.000000 Temp     =       0.000000 
PotEng   =     173.937420 E_bond   =      31.085559 E_angle  =     128.210009 
E_dihed  =      24.378618 E_impro  =       0.491077 E_vdwl   =      -7.943698 
E_coul   =      23.836816 E_long   =     -26.120960 Press    =    -376.319131
------------ Step          10030 ----- CPU =     846.7164 (sec) -------------
TotEng   =     173.472156 KinEng   =       0.000000 Temp     =       0.000000 
PotEng   =     173.472156 E_bond   =      31.085559 E_angle  =     128.210009 
E_dihed  =      24.378618 E_impro  =       0.491077 E_vdwl   =      -8.338701 
E_coul   =      23.766117 E_long   =     -26.120522 Press    =    -442.764497
------------ Step          10040 ----- CPU =     847.5969 (sec) -------------
TotEng   =     174.463982 KinEng   =       0.000000 Temp     =       0.000000 
PotEng   =     174.463982 E_bond   =      31.085559 E_angle  =     128.210009 
E_dihed  =      24.378618 E_impro  =       0.491077 E_vdwl   =      -7.433370 
E_coul   =      23.848664 E_long   =     -26.116573 Press    =    -401.028830
------------ Step          10050 ----- CPU =     848.4762 (sec) -------------
TotEng   =     174.445367 KinEng   =       0.000000 Temp     =       0.000000 
PotEng   =     174.445367 E_bond   =      31.085559 E_angle  =     128.210009 
E_dihed  =      24.378618 E_impro  =       0.491077 E_vdwl   =      -7.376841 
E_coul   =      23.783018 E_long   =     -26.126072 Press    =    -401.085786
------------ Step          10060 ----- CPU =     849.3537 (sec) -------------
TotEng   =     174.189365 KinEng   =       0.000000 Temp     =       0.000000 
PotEng   =     174.189365 E_bond   =      31.085559 E_angle  =     128.210009 
E_dihed  =      24.378618 E_impro  =       0.491077 E_vdwl   =      -7.606129 
E_coul   =      23.753577 E_long   =     -26.123345 Press    =    -457.049754
------------ Step          10070 ----- CPU =     850.2306 (sec) -------------
TotEng   =     174.719469 KinEng   =       0.000000 Temp     =       0.000000 
PotEng   =     174.719469 E_bond   =      31.085559 E_angle  =     128.210009 
E_dihed  =      24.378618 E_impro  =       0.491077 E_vdwl   =      -7.128360 
E_coul   =      23.801050 E_long   =     -26.118483 Press    =    -315.433705
------------ Step          10080 ----- CPU =     851.1076 (sec) -------------
TotEng   =     173.868259 KinEng   =       0.000000 Temp     =       0.000000 
PotEng   =     173.868259 E_bond   =      31.085559 E_angle  =     128.210009 
E_dihed  =      24.378618 E_impro  =       0.491077 E_vdwl   =      -7.972293 
E_coul   =      23.794890 E_long   =     -26.119599 Press    =    -342.819896
------------ Step          10090 ----- CPU =     851.9861 (sec) -------------
TotEng   =     174.849663 KinEng   =       0.000000 Temp     =       0.000000 
PotEng   =     174.849663 E_bond   =      31.085559 E_angle  =     128.210009 
E_dihed  =      24.378618 E_impro  =       0.491077 E_vdwl   =      -6.949825 
E_coul   =      23.753577 E_long   =     -26.119351 Press    =    -273.081119
------------ Step          10100 ----- CPU =     852.8659 (sec) -------------
TotEng   =     175.351850 KinEng   =       0.000000 Temp     =       0.000000 
PotEng   =     175.351850 E_bond   =      31.085559 E_angle  =     128.210009 
E_dihed  =      24.378618 E_impro  =       0.491077 E_vdwl   =      -6.316256 
E_coul   =      23.626226 E_long   =     -26.123382 Press    =    -426.498833
------------ Step          10110 ----- CPU =     853.7462 (sec) -------------
TotEng   =     174.797460 KinEng   =       0.000000 Temp     =       0.000000 
PotEng   =     174.797460 E_bond   =      31.085559 E_angle  =     128.210009 
E_dihed  =      24.378618 E_impro  =       0.491077 E_vdwl   =      -6.979413 
E_coul   =      23.725562 E_long   =     -26.113951 Press    =    -476.446042
------------ Step          10120 ----- CPU =     854.6248 (sec) -------------
TotEng   =     173.374585 KinEng   =       0.000000 Temp     =       0.000000 
PotEng   =     173.374585 E_bond   =      31.085559 E_angle  =     128.210009 
E_dihed  =      24.378618 E_impro  =       0.491077 E_vdwl   =      -8.254602 
E_coul   =      23.587267 E_long   =     -26.123342 Press    =    -354.254638
------------ Step          10130 ----- CPU =     855.5025 (sec) -------------
TotEng   =     174.312753 KinEng   =       0.000000 Temp     =       0.000000 
PotEng   =     174.312753 E_bond   =      31.085559 E_angle  =     128.210009 
E_dihed  =      24.378618 E_impro  =       0.491077 E_vdwl   =      -7.500244 
E_coul   =      23.766020 E_long   =     -26.118285 Press    =    -433.643855
------------ Step          10140 ----- CPU =     856.3789 (sec) -------------
TotEng   =     174.578932 KinEng   =       0.000000 Temp     =       0.000000 
PotEng   =     174.578932 E_bond   =      31.085559 E_angle  =     128.210009 
E_dihed  =      24.378618 E_impro  =       0.491077 E_vdwl   =      -7.248432 
E_coul   =      23.787751 E_long   =     -26.125650 Press    =    -404.056748
------------ Step          10150 ----- CPU =     857.2581 (sec) -------------
TotEng   =     173.905156 KinEng   =       0.000000 Temp     =       0.000000 
PotEng   =     173.905156 E_bond   =      31.085559 E_angle  =     128.210009 
E_dihed  =      24.378618 E_impro  =       0.491077 E_vdwl   =      -7.678103 
E_coul   =      23.545427 E_long   =     -26.127430 Press    =    -403.358495
------------ Step          10160 ----- CPU =     858.1355 (sec) -------------
TotEng   =     173.816281 KinEng   =       0.000000 Temp     =       0.000000 
PotEng   =     173.816281 E_bond   =      31.085559 E_angle  =     128.210009 
E_dihed  =      24.378618 E_impro  =       0.491077 E_vdwl   =      -7.985263 
E_coul   =      23.760177 E_long   =     -26.123894 Press    =    -372.996137
------------ Step          10170 ----- CPU =     859.0142 (sec) -------------
TotEng   =     173.385034 KinEng   =       0.000000 Temp     =       0.000000 
PotEng   =     173.385034 E_bond   =      31.085559 E_angle  =     128.210009 
E_dihed  =      24.378618 E_impro  =       0.491077 E_vdwl   =      -8.400631 
E_coul   =      23.743365 E_long   =     -26.122962 Press    =    -362.601277
------------ Step          10180 ----- CPU =     859.8908 (sec) -------------
TotEng   =     176.810796 KinEng   =       0.000000 Temp     =       0.000000 
PotEng   =     176.810796 E_bond   =      31.085559 E_angle  =     128.210009 
E_dihed  =      24.378618 E_impro  =       0.491077 E_vdwl   =      -4.742259 
E_coul   =      23.532110 E_long   =     -26.144317 Press    =    -389.540835
------------ Step          10190 ----- CPU =     860.7667 (sec) -------------
TotEng   =     175.272640 KinEng   =       0.000000 Temp     =       0.000000 
PotEng   =     175.272640 E_bond   =      31.085559 E_angle  =     128.210009 
E_dihed  =      24.378618 E_impro  =       0.491077 E_vdwl   =      -6.209981 
E_coul   =      23.453844 E_long   =     -26.136486 Press    =    -419.316900
Loop time of 860.767 on 1 procs for 10000 steps with 122 atoms

Performance: 0.502 ns/day, 47.820 hours/ns, 11.618 timesteps/s, 1.417 katom-step/s
99.7% CPU use with 1 MPI tasks x 1 OpenMP threads

MPI task timing breakdown:
Section |  min time  |  avg time  |  max time  |%varavg| %total
---------------------------------------------------------------
Pair    | 1.1513     | 1.1513     | 1.1513     |   0.0 |  0.13
Bond    | 0.31432    | 0.31432    | 0.31432    |   0.0 |  0.04
Kspace  | 0.40157    | 0.40157    | 0.40157    |   0.0 |  0.05
Neigh   | 5.7736     | 5.7736     | 5.7736     |   0.0 |  0.67
Comm    | 0.20006    | 0.20006    | 0.20006    |   0.0 |  0.02
Output  | 0.49481    | 0.49481    | 0.49481    |   0.0 |  0.06
Modify  | 852.41     | 852.41     | 852.41     |   0.0 | 99.03
Other   |            | 0.02287    |            |       |  0.00

Nlocal:            122 ave         122 max         122 min
Histogram: 1 0 0 0 0 0 0 0 0 0
Nghost:           1354 ave        1354 max        1354 min
Histogram: 1 0 0 0 0 0 0 0 0 0
Neighs:           7978 ave        7978 max        7978 min
Histogram: 1 0 0 0 0 0 0 0 0 0

Total # of neighbors = 7978
Ave neighs/atom = 65.393443
Ave special neighs/atom = 10.967213
Neighbor list builds = 1020000
Dangerous builds = 0
unfix                1
undump               2
Total wall time: 0:14:20
