Created by /home/rramji/scripts/createLammpsInput.pl on Wed Apr 26 18:33:38 2023

        4616 atoms
        5566 bonds
       12312 angles
        7614 dihedrals
         486 impropers

           8 atom types
           9 bond types
           5 angle types
           7 dihedral types
           1 improper types

		   0.000000  58.383000 xlo xhi
		   0.000000  58.383000 ylo yhi
		   0.000000  57.726000 zlo zhi

Masses

    1 6.5377E+01 # Zn     
    2 3.2060E+01 # S_3    
    3 1.2011E+01 # C_3    
    4 1.2011E+01 # C_R    
    5 1.5999E+01 # O_2    
    6 1.5999E+01 # O_R    
    7 1.0080E+00 # H_     
    8 1.0080E+00 # H___A  

Pair Coeffs

    1    0.05500    4.04468 # Zn Zn 
    2    0.34400    3.59032 # S_3 S_3 
    3    0.09510    3.47299 # C_3 C_3 
    4    0.09510    3.47299 # C_R C_R 
    5    0.09570    3.03315 # O_2 O_2 
    6    0.09570    3.03315 # O_R O_R 
    7    0.01520    2.84642 # H_ H_ 
    8          0    2.84642 # H___A H___A 

Bond Coeffs

    1      350     2.36 # Zn S_3 
    2      350     1.53 # C_3 C_3 
    3      350     1.09 # C_3 H_ 
    4      350     1.46 # C_R C_3 
    5      525     1.39 # C_R C_R 
    6      350     1.02 # C_R H_ 
    7      700     1.25 # O_2 C_R 
    8      525     1.35 # O_R C_R 
    9      350     0.98 # O_R H___A 

Angle Coeffs

    1       50     92.1 # X S_3 X 
    2       50  109.471 # X Zn X 
    3       50  109.471 # X C_3 X 
    4       50      120 # X C_R X 
    5       50      120 # X O_R X 

Dihedral Coeffs

    1 0.0833333       -1        6 # C_R C_R C_3 X 
    2 0.0833333       -1        6 # O_2 C_R C_3 X 
    3 0.0833333       -1        6 # O_R C_R C_3 X 
    4 0.111111        1        3 # X C_3 C_3 X 
    5 0.166667        1        3 # X C_R C_3 X 
    6    3.125       -1        2 # X C_R C_R X 
    7     6.25       -1        2 # X O_R C_R X 

Improper Coeffs

    1  13.3333        0 # C_R X X X 

Atoms

       1        1        1  0.00000000    0.00000    0.00000   40.00000    0    0    0
       2        1        1  0.00000000    0.00000   -0.00000   34.55000    0    0    0
       3        1        1  0.00000000   38.15200   -0.00000   40.00000    0    0    0
       4        1        1  0.00000000   38.15200   -0.00000   34.55000    0    0    0
       5        1        1  0.00000000   -0.00000   38.15200   40.00000    0    0    0
       6        1        1  0.00000000   -0.00000   38.15200   34.55000    0    0    0
       7        1        1  0.00000000   38.15200   38.15200   40.00000    0    0    0
       8        1        1  0.00000000   38.15200   38.15200   34.55000    0    0    0
       9        1        1  0.00000000    2.72500   -0.00000   37.27500    0    0    0
      10        1        1  0.00000000    2.72500   38.15200   37.27500    0    0    0
      11        1        1  0.00000000   -0.00000    2.72500   37.27500    0    0    0
      12        1        1  0.00000000   38.15200    2.72500   37.27500    0    0    0
      13        1        1  0.00000000    2.72500    2.72500   40.00000    0    0    0
      14        1        1  0.00000000    2.72500    2.72500   34.55000    0    0    0
      15        1        1  0.00000000    5.45000   -0.00000   40.00000    0    0    0
      16        1        1  0.00000000    5.45000   -0.00000   34.55000    0    0    0
      17        1        1  0.00000000    5.45000   38.15200   40.00000    0    0    0
      18        1        1  0.00000000    5.45000   38.15200   34.55000    0    0    0
      19        1        1  0.00000000   32.70200   -0.00000   40.00000    0    0    0
      20        1        1  0.00000000   32.70200   -0.00000   34.55000    0    0    0
      21        1        1  0.00000000   32.70200   38.15200   40.00000    0    0    0
      22        1        1  0.00000000   32.70200   38.15200   34.55000    0    0    0
      23        1        1  0.00000000   -0.00000    5.45000   40.00000    0    0    0
      24        1        1  0.00000000   -0.00000    5.45000   34.55000    0    0    0
      25        1        1  0.00000000   38.15200    5.45000   40.00000    0    0    0
      26        1        1  0.00000000   38.15200    5.45000   34.55000    0    0    0
      27        1        1  0.00000000   -0.00000   32.70200   40.00000    0    0    0
      28        1        1  0.00000000   -0.00000   32.70200   34.55000    0    0    0
      29        1        1  0.00000000   38.15200   32.70200   40.00000    0    0    0
      30        1        1  0.00000000   38.15200   32.70200   34.55000    0    0    0
      31        1        1  0.00000000    8.17500   -0.00000   37.27500    0    0    0
      32        1        1  0.00000000    8.17500   38.15200   37.27500    0    0    0
      33        1        1  0.00000000   35.42700   -0.00000   37.27500    0    0    0
      34        1        1  0.00000000   35.42700   38.15200   37.27500    0    0    0
      35        1        1  0.00000000    2.72500    5.45000   37.27500    0    0    0
      36        1        1  0.00000000    2.72500   32.70200   37.27500    0    0    0
      37        1        1  0.00000000    5.45000    2.72500   37.27500    0    0    0
      38        1        1  0.00000000   32.70200    2.72500   37.27500    0    0    0
      39        1        1  0.00000000   -0.00000    8.17500   37.27500    0    0    0
      40        1        1  0.00000000   38.15200    8.17500   37.27500    0    0    0
      41        1        1  0.00000000   -0.00000   35.42700   37.27500    0    0    0
      42        1        1  0.00000000   38.15200   35.42700   37.27500    0    0    0
      43        1        1  0.00000000    8.17500    2.72500   40.00000    0    0    0
      44        1        1  0.00000000    8.17500    2.72500   34.55000    0    0    0
      45        1        1  0.00000000   35.42700    2.72500   40.00000    0    0    0
      46        1        1  0.00000000   35.42700    2.72500   34.55000    0    0    0
      47        1        1  0.00000000    2.72500    8.17500   40.00000    0    0    0
      48        1        1  0.00000000    2.72500    8.17500   34.55000    0    0    0
      49        1        1  0.00000000    2.72500   35.42700   40.00000    0    0    0
      50        1        1  0.00000000    2.72500   35.42700   34.55000    0    0    0
      51        1        1  0.00000000   10.90100   -0.00000   40.00000    0    0    0
      52        1        1  0.00000000   10.90100   -0.00000   34.55000    0    0    0
      53        1        1  0.00000000   10.90100   38.15200   40.00000    0    0    0
      54        1        1  0.00000000   10.90100   38.15200   34.55000    0    0    0
      55        1        1  0.00000000   27.25100   -0.00000   40.00000    0    0    0
      56        1        1  0.00000000   27.25100   -0.00000   34.55000    0    0    0
      57        1        1  0.00000000   27.25100   38.15200   40.00000    0    0    0
      58        1        1  0.00000000   27.25100   38.15200   34.55000    0    0    0
      59        1        1  0.00000000   -0.00000   10.90100   40.00000    0    0    0
      60        1        1  0.00000000   -0.00000   10.90100   34.55000    0    0    0
      61        1        1  0.00000000   38.15200   10.90100   40.00000    0    0    0
      62        1        1  0.00000000   38.15200   10.90100   34.55000    0    0    0
      63        1        1  0.00000000   -0.00000   27.25100   40.00000    0    0    0
      64        1        1  0.00000000   -0.00000   27.25100   34.55000    0    0    0
      65        1        1  0.00000000   38.15200   27.25100   40.00000    0    0    0
      66        1        1  0.00000000   38.15200   27.25100   34.55000    0    0    0
      67        1        1  0.00000000   13.62600   -0.00000   37.27500    0    0    0
      68        1        1  0.00000000   13.62600   38.15200   37.27500    0    0    0
      69        1        1  0.00000000   29.97600   -0.00000   37.27500    0    0    0
      70        1        1  0.00000000   29.97600   38.15200   37.27500    0    0    0
      71        1        1  0.00000000    2.72500   10.90100   37.27500    0    0    0
      72        1        1  0.00000000    2.72500   27.25100   37.27500    0    0    0
      73        1        1  0.00000000   10.90100    2.72500   37.27500    0    0    0
      74        1        1  0.00000000   27.25100    2.72500   37.27500    0    0    0
      75        1        1  0.00000000   -0.00000   13.62600   37.27500    0    0    0
      76        1        1  0.00000000   38.15200   13.62600   37.27500    0    0    0
      77        1        1  0.00000000   -0.00000   29.97600   37.27500    0    0    0
      78        1        1  0.00000000   38.15200   29.97600   37.27500    0    0    0
      79        1        1  0.00000000   13.62600    2.72500   40.00000    0    0    0
      80        1        1  0.00000000   13.62600    2.72500   34.55000    0    0    0
      81        1        1  0.00000000   29.97600    2.72500   40.00000    0    0    0
      82        1        1  0.00000000   29.97600    2.72500   34.55000    0    0    0
      83        1        1  0.00000000    2.72500   13.62600   40.00000    0    0    0
      84        1        1  0.00000000    2.72500   13.62600   34.55000    0    0    0
      85        1        1  0.00000000    2.72500   29.97600   40.00000    0    0    0
      86        1        1  0.00000000    2.72500   29.97600   34.55000    0    0    0
      87        1        1  0.00000000   16.35100   -0.00000   40.00000    0    0    0
      88        1        1  0.00000000   16.35100   -0.00000   34.55000    0    0    0
      89        1        1  0.00000000   16.35100   38.15200   40.00000    0    0    0
      90        1        1  0.00000000   16.35100   38.15200   34.55000    0    0    0
      91        1        1  0.00000000   21.80100   -0.00000   40.00000    0    0    0
      92        1        1  0.00000000   21.80100   -0.00000   34.55000    0    0    0
      93        1        1  0.00000000   21.80100   38.15200   40.00000    0    0    0
      94        1        1  0.00000000   21.80100   38.15200   34.55000    0    0    0
      95        1        1  0.00000000   -0.00000   16.35100   40.00000    0    0    0
      96        1        1  0.00000000   -0.00000   16.35100   34.55000    0    0    0
      97        1        1  0.00000000   38.15200   16.35100   40.00000    0    0    0
      98        1        1  0.00000000   38.15200   16.35100   34.55000    0    0    0
      99        1        1  0.00000000   -0.00000   21.80100   40.00000    0    0    0
     100        1        1  0.00000000   -0.00000   21.80100   34.55000    0    0    0
     101        1        1  0.00000000   38.15200   21.80100   40.00000    0    0    0
     102        1        1  0.00000000   38.15200   21.80100   34.55000    0    0    0
     103        1        1  0.00000000   19.07600   -0.00000   37.27500    0    0    0
     104        1        1  0.00000000   19.07600   38.15200   37.27500    0    0    0
     105        1        1  0.00000000   24.52600   -0.00000   37.27500    0    0    0
     106        1        1  0.00000000   24.52600   38.15200   37.27500    0    0    0
     107        1        1  0.00000000    2.72500   16.35100   37.27500    0    0    0
     108        1        1  0.00000000    2.72500   21.80100   37.27500    0    0    0
     109        1        1  0.00000000   16.35100    2.72500   37.27500    0    0    0
     110        1        1  0.00000000   21.80100    2.72500   37.27500    0    0    0
     111        1        1  0.00000000   -0.00000   19.07600   37.27500    0    0    0
     112        1        1  0.00000000   38.15200   19.07600   37.27500    0    0    0
     113        1        1  0.00000000   -0.00000   24.52600   37.27500    0    0    0
     114        1        1  0.00000000   38.15200   24.52600   37.27500    0    0    0
     115        1        1  0.00000000   19.07600    2.72500   40.00000    0    0    0
     116        1        1  0.00000000   19.07600    2.72500   34.55000    0    0    0
     117        1        1  0.00000000   24.52600    2.72500   40.00000    0    0    0
     118        1        1  0.00000000   24.52600    2.72500   34.55000    0    0    0
     119        1        1  0.00000000    2.72500   19.07600   40.00000    0    0    0
     120        1        1  0.00000000    2.72500   19.07600   34.55000    0    0    0
     121        1        1  0.00000000    2.72500   24.52600   40.00000    0    0    0
     122        1        1  0.00000000    2.72500   24.52600   34.55000    0    0    0
     123        1        1  0.00000000    5.45000    5.45000   40.00000    0    0    0
     124        1        1  0.00000000    5.45000    5.45000   34.55000    0    0    0
     125        1        1  0.00000000   32.70200   32.70200   40.00000    0    0    0
     126        1        1  0.00000000   32.70200   32.70200   34.55000    0    0    0
     127        1        1  0.00000000    5.45000   32.70200   40.00000    0    0    0
     128        1        1  0.00000000    5.45000   32.70200   34.55000    0    0    0
     129        1        1  0.00000000   32.70200    5.45000   40.00000    0    0    0
     130        1        1  0.00000000   32.70200    5.45000   34.55000    0    0    0
     131        1        1  0.00000000    8.17500    5.45000   37.27500    0    0    0
     132        1        1  0.00000000   35.42700   32.70200   37.27500    0    0    0
     133        1        1  0.00000000    8.17500   32.70200   37.27500    0    0    0
     134        1        1  0.00000000   35.42700    5.45000   37.27500    0    0    0
     135        1        1  0.00000000    5.45000    8.17500   37.27500    0    0    0
     136        1        1  0.00000000   32.70200   35.42700   37.27500    0    0    0
     137        1        1  0.00000000    5.45000   35.42700   37.27500    0    0    0
     138        1        1  0.00000000   32.70200    8.17500   37.27500    0    0    0
     139        1        1  0.00000000    8.17500    8.17500   40.00000    0    0    0
     140        1        1  0.00000000    8.17500    8.17500   34.55000    0    0    0
     141        1        1  0.00000000   35.42700   35.42700   40.00000    0    0    0
     142        1        1  0.00000000   35.42700   35.42700   34.55000    0    0    0
     143        1        1  0.00000000    8.17500   35.42700   40.00000    0    0    0
     144        1        1  0.00000000    8.17500   35.42700   34.55000    0    0    0
     145        1        1  0.00000000   35.42700    8.17500   40.00000    0    0    0
     146        1        1  0.00000000   35.42700    8.17500   34.55000    0    0    0
     147        1        1  0.00000000   10.90100    5.45000   40.00000    0    0    0
     148        1        1  0.00000000   10.90100    5.45000   34.55000    0    0    0
     149        1        1  0.00000000   27.25100   32.70200   40.00000    0    0    0
     150        1        1  0.00000000   27.25100   32.70200   34.55000    0    0    0
     151        1        1  0.00000000   10.90100   32.70200   40.00000    0    0    0
     152        1        1  0.00000000   10.90100   32.70200   34.55000    0    0    0
     153        1        1  0.00000000   27.25100    5.45000   40.00000    0    0    0
     154        1        1  0.00000000   27.25100    5.45000   34.55000    0    0    0
     155        1        1  0.00000000    5.45000   10.90100   40.00000    0    0    0
     156        1        1  0.00000000    5.45000   10.90100   34.55000    0    0    0
     157        1        1  0.00000000   32.70200   27.25100   40.00000    0    0    0
     158        1        1  0.00000000   32.70200   27.25100   34.55000    0    0    0
     159        1        1  0.00000000   32.70200   10.90100   40.00000    0    0    0
     160        1        1  0.00000000   32.70200   10.90100   34.55000    0    0    0
     161        1        1  0.00000000    5.45000   27.25100   40.00000    0    0    0
     162        1        1  0.00000000    5.45000   27.25100   34.55000    0    0    0
     163        1        1  0.00000000   13.62600    5.45000   37.27500    0    0    0
     164        1        1  0.00000000   29.97600   32.70200   37.27500    0    0    0
     165        1        1  0.00000000   13.62600   32.70200   37.27500    0    0    0
     166        1        1  0.00000000   29.97600    5.45000   37.27500    0    0    0
     167        1        1  0.00000000    8.17500   10.90100   37.27500    0    0    0
     168        1        1  0.00000000   35.42700   27.25100   37.27500    0    0    0
     169        1        1  0.00000000   35.42700   10.90100   37.27500    0    0    0
     170        1        1  0.00000000    8.17500   27.25100   37.27500    0    0    0
     171        1        1  0.00000000   10.90100    8.17500   37.27500    0    0    0
     172        1        1  0.00000000   27.25100   35.42700   37.27500    0    0    0
     173        1        1  0.00000000   10.90100   35.42700   37.27500    0    0    0
     174        1        1  0.00000000   27.25100    8.17500   37.27500    0    0    0
     175        1        1  0.00000000    5.45000   13.62600   37.27500    0    0    0
     176        1        1  0.00000000   32.70200   29.97600   37.27500    0    0    0
     177        1        1  0.00000000   32.70200   13.62600   37.27500    0    0    0
     178        1        1  0.00000000    5.45000   29.97600   37.27500    0    0    0
     179        1        1  0.00000000   13.62600    8.17500   40.00000    0    0    0
     180        1        1  0.00000000   13.62600    8.17500   34.55000    0    0    0
     181        1        1  0.00000000   29.97600   35.42700   40.00000    0    0    0
     182        1        1  0.00000000   29.97600   35.42700   34.55000    0    0    0
     183        1        1  0.00000000   13.62600   35.42700   40.00000    0    0    0
     184        1        1  0.00000000   13.62600   35.42700   34.55000    0    0    0
     185        1        1  0.00000000   29.97600    8.17500   40.00000    0    0    0
     186        1        1  0.00000000   29.97600    8.17500   34.55000    0    0    0
     187        1        1  0.00000000    8.17500   13.62600   40.00000    0    0    0
     188        1        1  0.00000000    8.17500   13.62600   34.55000    0    0    0
     189        1        1  0.00000000   35.42700   29.97600   40.00000    0    0    0
     190        1        1  0.00000000   35.42700   29.97600   34.55000    0    0    0
     191        1        1  0.00000000   35.42700   13.62600   40.00000    0    0    0
     192        1        1  0.00000000   35.42700   13.62600   34.55000    0    0    0
     193        1        1  0.00000000    8.17500   29.97600   40.00000    0    0    0
     194        1        1  0.00000000    8.17500   29.97600   34.55000    0    0    0
     195        1        1  0.00000000   16.35100    5.45000   40.00000    0    0    0
     196        1        1  0.00000000   16.35100    5.45000   34.55000    0    0    0
     197        1        1  0.00000000   21.80100   32.70200   40.00000    0    0    0
     198        1        1  0.00000000   21.80100   32.70200   34.55000    0    0    0
     199        1        1  0.00000000   16.35100   32.70200   40.00000    0    0    0
     200        1        1  0.00000000   16.35100   32.70200   34.55000    0    0    0
     201        1        1  0.00000000   21.80100    5.45000   40.00000    0    0    0
     202        1        1  0.00000000   21.80100    5.45000   34.55000    0    0    0
     203        1        1  0.00000000    5.45000   16.35100   40.00000    0    0    0
     204        1        1  0.00000000    5.45000   16.35100   34.55000    0    0    0
     205        1        1  0.00000000   32.70200   21.80100   40.00000    0    0    0
     206        1        1  0.00000000   32.70200   21.80100   34.55000    0    0    0
     207        1        1  0.00000000   32.70200   16.35100   40.00000    0    0    0
     208        1        1  0.00000000   32.70200   16.35100   34.55000    0    0    0
     209        1        1  0.00000000    5.45000   21.80100   40.00000    0    0    0
     210        1        1  0.00000000    5.45000   21.80100   34.55000    0    0    0
     211        1        1  0.00000000   19.07600    5.45000   37.27500    0    0    0
     212        1        1  0.00000000   24.52600   32.70200   37.27500    0    0    0
     213        1        1  0.00000000   19.07600   32.70200   37.27500    0    0    0
     214        1        1  0.00000000   24.52600    5.45000   37.27500    0    0    0
     215        1        1  0.00000000    8.17500   16.35100   37.27500    0    0    0
     216        1        1  0.00000000   35.42700   21.80100   37.27500    0    0    0
     217        1        1  0.00000000   35.42700   16.35100   37.27500    0    0    0
     218        1        1  0.00000000    8.17500   21.80100   37.27500    0    0    0
     219        1        1  0.00000000   16.35100    8.17500   37.27500    0    0    0
     220        1        1  0.00000000   21.80100   35.42700   37.27500    0    0    0
     221        1        1  0.00000000   16.35100   35.42700   37.27500    0    0    0
     222        1        1  0.00000000   21.80100    8.17500   37.27500    0    0    0
     223        1        1  0.00000000    5.45000   19.07600   37.27500    0    0    0
     224        1        1  0.00000000   32.70200   24.52600   37.27500    0    0    0
     225        1        1  0.00000000   32.70200   19.07600   37.27500    0    0    0
     226        1        1  0.00000000    5.45000   24.52600   37.27500    0    0    0
     227        1        1  0.00000000   19.07600    8.17500   40.00000    0    0    0
     228        1        1  0.00000000   19.07600    8.17500   34.55000    0    0    0
     229        1        1  0.00000000   24.52600   35.42700   40.00000    0    0    0
     230        1        1  0.00000000   24.52600   35.42700   34.55000    0    0    0
     231        1        1  0.00000000   19.07600   35.42700   40.00000    0    0    0
     232        1        1  0.00000000   19.07600   35.42700   34.55000    0    0    0
     233        1        1  0.00000000   24.52600    8.17500   40.00000    0    0    0
     234        1        1  0.00000000   24.52600    8.17500   34.55000    0    0    0
     235        1        1  0.00000000    8.17500   19.07600   40.00000    0    0    0
     236        1        1  0.00000000    8.17500   19.07600   34.55000    0    0    0
     237        1        1  0.00000000   35.42700   24.52600   40.00000    0    0    0
     238        1        1  0.00000000   35.42700   24.52600   34.55000    0    0    0
     239        1        1  0.00000000   35.42700   19.07600   40.00000    0    0    0
     240        1        1  0.00000000   35.42700   19.07600   34.55000    0    0    0
     241        1        1  0.00000000    8.17500   24.52600   40.00000    0    0    0
     242        1        1  0.00000000    8.17500   24.52600   34.55000    0    0    0
     243        1        1  0.00000000   10.90100   10.90100   40.00000    0    0    0
     244        1        1  0.00000000   10.90100   10.90100   34.55000    0    0    0
     245        1        1  0.00000000   27.25100   27.25100   40.00000    0    0    0
     246        1        1  0.00000000   27.25100   27.25100   34.55000    0    0    0
     247        1        1  0.00000000   10.90100   27.25100   40.00000    0    0    0
     248        1        1  0.00000000   10.90100   27.25100   34.55000    0    0    0
     249        1        1  0.00000000   27.25100   10.90100   40.00000    0    0    0
     250        1        1  0.00000000   27.25100   10.90100   34.55000    0    0    0
     251        1        1  0.00000000   13.62600   10.90100   37.27500    0    0    0
     252        1        1  0.00000000   29.97600   27.25100   37.27500    0    0    0
     253        1        1  0.00000000   13.62600   27.25100   37.27500    0    0    0
     254        1        1  0.00000000   29.97600   10.90100   37.27500    0    0    0
     255        1        1  0.00000000   10.90100   13.62600   37.27500    0    0    0
     256        1        1  0.00000000   27.25100   29.97600   37.27500    0    0    0
     257        1        1  0.00000000   10.90100   29.97600   37.27500    0    0    0
     258        1        1  0.00000000   27.25100   13.62600   37.27500    0    0    0
     259        1        1  0.00000000   13.62600   13.62600   40.00000    0    0    0
     260        1        1  0.00000000   13.62600   13.62600   34.55000    0    0    0
     261        1        1  0.00000000   29.97600   29.97600   40.00000    0    0    0
     262        1        1  0.00000000   29.97600   29.97600   34.55000    0    0    0
     263        1        1  0.00000000   13.62600   29.97600   40.00000    0    0    0
     264        1        1  0.00000000   13.62600   29.97600   34.55000    0    0    0
     265        1        1  0.00000000   29.97600   13.62600   40.00000    0    0    0
     266        1        1  0.00000000   29.97600   13.62600   34.55000    0    0    0
     267        1        1  0.00000000   16.35100   10.90100   40.00000    0    0    0
     268        1        1  0.00000000   16.35100   10.90100   34.55000    0    0    0
     269        1        1  0.00000000   21.80100   27.25100   40.00000    0    0    0
     270        1        1  0.00000000   21.80100   27.25100   34.55000    0    0    0
     271        1        1  0.00000000   16.35100   27.25100   40.00000    0    0    0
     272        1        1  0.00000000   16.35100   27.25100   34.55000    0    0    0
     273        1        1  0.00000000   21.80100   10.90100   40.00000    0    0    0
     274        1        1  0.00000000   21.80100   10.90100   34.55000    0    0    0
     275        1        1  0.00000000   10.90100   16.35100   40.00000    0    0    0
     276        1        1  0.00000000   10.90100   16.35100   34.55000    0    0    0
     277        1        1  0.00000000   27.25100   21.80100   40.00000    0    0    0
     278        1        1  0.00000000   27.25100   21.80100   34.55000    0    0    0
     279        1        1  0.00000000   27.25100   16.35100   40.00000    0    0    0
     280        1        1  0.00000000   27.25100   16.35100   34.55000    0    0    0
     281        1        1  0.00000000   10.90100   21.80100   40.00000    0    0    0
     282        1        1  0.00000000   10.90100   21.80100   34.55000    0    0    0
     283        1        1  0.00000000   19.07600   10.90100   37.27500    0    0    0
     284        1        1  0.00000000   24.52600   27.25100   37.27500    0    0    0
     285        1        1  0.00000000   19.07600   27.25100   37.27500    0    0    0
     286        1        1  0.00000000   24.52600   10.90100   37.27500    0    0    0
     287        1        1  0.00000000   13.62600   16.35100   37.27500    0    0    0
     288        1        1  0.00000000   29.97600   21.80100   37.27500    0    0    0
     289        1        1  0.00000000   29.97600   16.35100   37.27500    0    0    0
     290        1        1  0.00000000   13.62600   21.80100   37.27500    0    0    0
     291        1        1  0.00000000   16.35100   13.62600   37.27500    0    0    0
     292        1        1  0.00000000   21.80100   29.97600   37.27500    0    0    0
     293        1        1  0.00000000   16.35100   29.97600   37.27500    0    0    0
     294        1        1  0.00000000   21.80100   13.62600   37.27500    0    0    0
     295        1        1  0.00000000   10.90100   19.07600   37.27500    0    0    0
     296        1        1  0.00000000   27.25100   24.52600   37.27500    0    0    0
     297        1        1  0.00000000   27.25100   19.07600   37.27500    0    0    0
     298        1        1  0.00000000   10.90100   24.52600   37.27500    0    0    0
     299        1        1  0.00000000   19.07600   13.62600   40.00000    0    0    0
     300        1        1  0.00000000   19.07600   13.62600   34.55000    0    0    0
     301        1        1  0.00000000   24.52600   29.97600   40.00000    0    0    0
     302        1        1  0.00000000   24.52600   29.97600   34.55000    0    0    0
     303        1        1  0.00000000   19.07600   29.97600   40.00000    0    0    0
     304        1        1  0.00000000   19.07600   29.97600   34.55000    0    0    0
     305        1        1  0.00000000   24.52600   13.62600   40.00000    0    0    0
     306        1        1  0.00000000   24.52600   13.62600   34.55000    0    0    0
     307        1        1  0.00000000   13.62600   19.07600   40.00000    0    0    0
     308        1        1  0.00000000   13.62600   19.07600   34.55000    0    0    0
     309        1        1  0.00000000   29.97600   24.52600   40.00000    0    0    0
     310        1        1  0.00000000   29.97600   24.52600   34.55000    0    0    0
     311        1        1  0.00000000   29.97600   19.07600   40.00000    0    0    0
     312        1        1  0.00000000   29.97600   19.07600   34.55000    0    0    0
     313        1        1  0.00000000   13.62600   24.52600   40.00000    0    0    0
     314        1        1  0.00000000   13.62600   24.52600   34.55000    0    0    0
     315        1        1  0.00000000   16.35100   16.35100   40.00000    0    0    0
     316        1        1  0.00000000   16.35100   16.35100   34.55000    0    0    0
     317        1        1  0.00000000   21.80100   21.80100   40.00000    0    0    0
     318        1        1  0.00000000   21.80100   21.80100   34.55000    0    0    0
     319        1        1  0.00000000   16.35100   21.80100   40.00000    0    0    0
     320        1        1  0.00000000   16.35100   21.80100   34.55000    0    0    0
     321        1        1  0.00000000   21.80100   16.35100   40.00000    0    0    0
     322        1        1  0.00000000   21.80100   16.35100   34.55000    0    0    0