LAMMPS (8 Feb 2023)
OMP_NUM_THREADS environment is not set. Defaulting to 1 thread. (src/comm.cpp:98)
  using 1 OpenMP thread(s) per MPI task
units                real
atom_style           full
boundary             p p p
dielectric           1
special_bonds        lj/coul 0.0 0.0 1.0

pair_style           lj/charmm/coul/long/opt 9 10.00000
bond_style           harmonic
angle_style          harmonic
dihedral_style       harmonic
improper_style       umbrella
kspace_style         pppm 0.0001

read_data            data.oleic_xligand.test
Reading data file ...
  orthogonal box = (0 0 0) to (60 60 60)
  2 by 2 by 2 MPI processor grid
  reading atoms ...
  122 atoms
  scanning bonds ...
  4 = max bonds/atom
  scanning angles ...
  6 = max angles/atom
  scanning dihedrals ...
  15 = max dihedrals/atom
  scanning impropers ...
  3 = max impropers/atom
  reading bonds ...
  123 bonds
  reading angles ...
  228 angles
  reading dihedrals ...
  329 dihedrals
  reading impropers ...
  48 impropers
Finding 1-2 1-3 1-4 neighbors ...
  special bond factors lj:    0        0        1       
  special bond factors coul:  0        0        1       
     4 = max # of 1-2 neighbors
     8 = max # of 1-3 neighbors
    11 = max # of special neighbors
  special bonds CPU = 0.000 seconds
  read_data CPU = 0.006 seconds


pair_modify          mix geometric
neighbor             2.0 multi
neigh_modify         every 2 delay 4 check yes
thermo_style         multi
thermo_modify        line multi format float %14.6f flush yes
variable             input string in.oleic_xligand.test
variable             sname string oleic_xligand.test
variable             rtemp index 300


timestep             0.5

print                .
.
print                ==========================================
==========================================
print                "500 steps CG Minimization"
500 steps CG Minimization
print                ==========================================
==========================================
print                .
.

dump                 1 all custom 25 ${sname}.min.lammpstrj id type xu yu zu vx vy vz
dump                 1 all custom 25 oleic_xligand.test.min.lammpstrj id type xu yu zu vx vy vz
thermo               10
min_style            sd
minimize             1.0e-4 1.0e-4 500 5000

CITE-CITE-CITE-CITE-CITE-CITE-CITE-CITE-CITE-CITE-CITE-CITE-CITE

Your simulation uses code contributions which should be cited:

- neighbor multi command: doi:10.1016/j.cpc.2008.03.005, doi:10.1007/s40571-020-00361-2

@Article{Intveld08,
 author =  {in 't Veld, P. J. and S. J.~Plimpton and G. S. Grest},
 title =   {Accurate and Efficient Methods for Modeling Colloidal
            Mixtures in an Explicit Solvent using Molecular Dynamics},
 journal = {Comput.\ Phys.\ Commut.},
 year =    2008,
 volume =  179,
 pages =   {320--329}
}

@article{Shire2020,
 author = {Shire, Tom and Hanley, Kevin J. and Stratford, Kevin},
 title = {{DEM} Simulations of Polydisperse Media: Efficient Contact
          Detection Applied to Investigate the Quasi-Static Limit},
 journal = {Computational Particle Mechanics},
 year = {2020}
}

CITE-CITE-CITE-CITE-CITE-CITE-CITE-CITE-CITE-CITE-CITE-CITE-CITE

Switching to 'neigh_modify every 1 delay 0 check yes' setting during minimization
PPPM initialization ...
WARNING: System is not charge neutral, net charge = -0.0006 (src/kspace.cpp:327)
  using 12-bit tables for long-range coulomb (src/kspace.cpp:342)
  G vector (1/distance) = 0.063991812
  grid = 3 3 3
  stencil order = 5
  estimated absolute RMS force accuracy = 0.036397473
  estimated relative force accuracy = 0.00010960991
  using double precision FFTW3
  3d grid and FFT values/proc = 343 8
Generated 28 of 28 mixed pair_coeff terms from geometric mixing rule
Neighbor list info ...
  update: every = 1 steps, delay = 0 steps, check = yes
  max neighbors/atom: 2000, page size: 100000
  master list distance cutoff = 12
  ghost atom cutoff = 12
  binsize = 6, bins = 10 10 10
  1 neighbor lists, perpetual/occasional/extra = 1 0 0
  (1) pair lj/charmm/coul/long/opt, perpetual
      attributes: half, newton on
      pair build: half/multi/newton
      stencil: half/multi/3d
      bin: multi
Per MPI rank memory allocation (min/avg/max) = 15.99 | 16.91 | 17.76 Mbytes
------------ Step              0 ----- CPU =            0 (sec) -------------
TotEng   =     200.089240 KinEng   =       0.000000 Temp     =       0.000000 
PotEng   =     200.089240 E_bond   =      28.228952 E_angle  =      14.755458 
E_dihed  =      16.230080 E_impro  =       0.012484 E_vdwl   =     149.816126 
E_coul   =       2.396956 E_long   =     -11.350816 Press    =     166.174860
------------ Step             10 ----- CPU =  0.002964643 (sec) -------------
TotEng   =     135.148976 KinEng   =       0.000000 Temp     =       0.000000 
PotEng   =     135.148976 E_bond   =       5.638574 E_angle  =      12.477897 
E_dihed  =      17.783118 E_impro  =       0.068195 E_vdwl   =     107.649318 
E_coul   =       2.882659 E_long   =     -11.350785 Press    =     115.050725
------------ Step             20 ----- CPU =   0.00516495 (sec) -------------
TotEng   =     128.753583 KinEng   =       0.000000 Temp     =       0.000000 
PotEng   =     128.753583 E_bond   =       5.847864 E_angle  =      12.625769 
E_dihed  =      18.653625 E_impro  =       0.077116 E_vdwl   =      99.889749 
E_coul   =       3.010267 E_long   =     -11.350807 Press    =      97.791415
------------ Step             30 ----- CPU =   0.00743091 (sec) -------------
TotEng   =     124.606238 KinEng   =       0.000000 Temp     =       0.000000 
PotEng   =     124.606238 E_bond   =       6.389926 E_angle  =      12.981395 
E_dihed  =      19.449234 E_impro  =       0.082883 E_vdwl   =      94.058440 
E_coul   =       2.995210 E_long   =     -11.350850 Press    =      81.465075
------------ Step             40 ----- CPU =   0.00962235 (sec) -------------
TotEng   =     119.251498 KinEng   =       0.000000 Temp     =       0.000000 
PotEng   =     119.251498 E_bond   =       8.022550 E_angle  =      15.037957 
E_dihed  =      20.736396 E_impro  =       0.087194 E_vdwl   =      83.787759 
E_coul   =       2.930682 E_long   =     -11.351041 Press    =      48.442840
------------ Step             50 ----- CPU =   0.01188838 (sec) -------------
TotEng   =     118.710039 KinEng   =       0.000000 Temp     =       0.000000 
PotEng   =     118.710039 E_bond   =       8.183609 E_angle  =      15.303117 
E_dihed  =      20.789838 E_impro  =       0.086185 E_vdwl   =      82.766410 
E_coul   =       2.931941 E_long   =     -11.351062 Press    =      44.869688
------------ Step             60 ----- CPU =   0.01406955 (sec) -------------
TotEng   =     118.467427 KinEng   =       0.000000 Temp     =       0.000000 
PotEng   =     118.467427 E_bond   =       8.274163 E_angle  =      15.423038 
E_dihed  =      20.814855 E_impro  =       0.085847 E_vdwl   =      82.288194 
E_coul   =       2.932396 E_long   =     -11.351066 Press    =      43.121456
------------ Step             70 ----- CPU =   0.01626394 (sec) -------------
TotEng   =     118.223992 KinEng   =       0.000000 Temp     =       0.000000 
PotEng   =     118.223992 E_bond   =       8.358666 E_angle  =      15.535384 
E_dihed  =      20.837889 E_impro  =       0.085618 E_vdwl   =      81.844670 
E_coul   =       2.912832 E_long   =     -11.351068 Press    =      41.490055
------------ Step             80 ----- CPU =   0.01852946 (sec) -------------
TotEng   =     118.016116 KinEng   =       0.000000 Temp     =       0.000000 
PotEng   =     118.016116 E_bond   =       8.438272 E_angle  =      15.641319 
E_dihed  =      20.858882 E_impro  =       0.085462 E_vdwl   =      81.429821 
E_coul   =       2.913428 E_long   =     -11.351068 Press    =      39.961445
------------ Step             90 ----- CPU =   0.02073102 (sec) -------------
TotEng   =     117.820255 KinEng   =       0.000000 Temp     =       0.000000 
PotEng   =     117.820255 E_bond   =       8.513997 E_angle  =      15.742181 
E_dihed  =      20.877863 E_impro  =       0.085355 E_vdwl   =      81.037853 
E_coul   =       2.914074 E_long   =     -11.351067 Press    =      38.510461
------------ Step            100 ----- CPU =   0.02298461 (sec) -------------
TotEng   =     117.633063 KinEng   =       0.000000 Temp     =       0.000000 
PotEng   =     117.633063 E_bond   =       8.586970 E_angle  =      15.839452 
E_dihed  =      20.894914 E_impro  =       0.085281 E_vdwl   =      80.662737 
E_coul   =       2.914775 E_long   =     -11.351066 Press    =      37.115564
------------ Step            110 ----- CPU =   0.02516798 (sec) -------------
TotEng   =     117.418358 KinEng   =       0.000000 Temp     =       0.000000 
PotEng   =     117.418358 E_bond   =       8.658473 E_angle  =      15.934801 
E_dihed  =      20.910126 E_impro  =       0.085230 E_vdwl   =      80.297920 
E_coul   =       2.882870 E_long   =     -11.351063 Press    =      35.745200
------------ Step            120 ----- CPU =   0.02735604 (sec) -------------
TotEng   =     117.204853 KinEng   =       0.000000 Temp     =       0.000000 
PotEng   =     117.204853 E_bond   =       8.730003 E_angle  =      16.030211 
E_dihed  =      20.923565 E_impro  =       0.085195 E_vdwl   =      79.935845 
E_coul   =       2.851094 E_long   =     -11.351059 Press    =      34.379497
------------ Step            127 ----- CPU =   0.02917175 (sec) -------------
TotEng   =     117.094707 KinEng   =       0.000000 Temp     =       0.000000 
PotEng   =     117.094707 E_bond   =       8.802900 E_angle  =      16.140620 
E_dihed  =      20.933176 E_impro  =       0.084243 E_vdwl   =      79.614841 
E_coul   =       2.869972 E_long   =     -11.351044 Press    =      33.058943
Loop time of 0.0291984 on 8 procs for 127 steps with 122 atoms

98.1% CPU use with 8 MPI tasks x 1 OpenMP threads

Minimization stats:
  Stopping criterion = energy tolerance
  Energy initial, next-to-last, final = 
      200.089239502804   117.094880092533   117.094707374326
  Force two-norm initial, final = 412.57788 10.436732
  Force max component initial, final = 110.02927 4.5222715
  Final line search alpha, max atom move = 0.062336445 0.28190233
  Iterations, force evaluations = 127 254

MPI task timing breakdown:
Section |  min time  |  avg time  |  max time  |%varavg| %total
---------------------------------------------------------------
Pair    | 7.5848e-05 | 0.0019004  | 0.0049008  |   4.1 |  6.51
Bond    | 3.2015e-05 | 0.0011742  | 0.0028038  |   3.0 |  4.02
Kspace  | 0.015805   | 0.019882   | 0.023189   |   2.1 | 68.09
Neigh   | 0          | 0          | 0          |   0.0 |  0.00
Comm    | 0.0027112  | 0.0031861  | 0.0037563  |   0.7 | 10.91
Output  | 0.00064324 | 0.0006894  | 0.00078538 |   0.0 |  2.36
Modify  | 0          | 0          | 0          |   0.0 |  0.00
Other   |            | 0.002366   |            |       |  8.10

Nlocal:          15.25 ave          32 max           0 min
Histogram: 3 0 1 0 0 0 0 1 1 2
Nghost:          95.25 ave         120 max          70 min
Histogram: 1 1 0 0 2 2 0 0 1 1
Neighs:         364.25 ave         932 max           0 min
Histogram: 3 1 0 0 0 2 0 0 0 2

Total # of neighbors = 2914
Ave neighs/atom = 23.885246
Ave special neighs/atom = 5.7540984
Neighbor list builds = 0
Dangerous builds = 0
min_style            cg
minimize             1.0e-4 1.0e-4 500 5000
Switching to 'neigh_modify every 1 delay 0 check yes' setting during minimization
PPPM initialization ...
  using 12-bit tables for long-range coulomb (src/kspace.cpp:342)
  G vector (1/distance) = 0.063991812
  grid = 3 3 3
  stencil order = 5
  estimated absolute RMS force accuracy = 0.036397473
  estimated relative force accuracy = 0.00010960991
  using double precision FFTW3
  3d grid and FFT values/proc = 343 8
Generated 28 of 28 mixed pair_coeff terms from geometric mixing rule
Per MPI rank memory allocation (min/avg/max) = 15.99 | 16.91 | 17.76 Mbytes
------------ Step            127 ----- CPU =            0 (sec) -------------
TotEng   =     117.094707 KinEng   =       0.000000 Temp     =       0.000000 
PotEng   =     117.094707 E_bond   =       8.802900 E_angle  =      16.140620 
E_dihed  =      20.933176 E_impro  =       0.084243 E_vdwl   =      79.614841 
E_coul   =       2.869972 E_long   =     -11.351044 Press    =      33.058943
------------ Step            130 ----- CPU =  0.000763415 (sec) -------------
TotEng   =     115.109606 KinEng   =       0.000000 Temp     =       0.000000 
PotEng   =     115.109606 E_bond   =      10.382188 E_angle  =      18.153074 
E_dihed  =      21.204882 E_impro  =       0.095533 E_vdwl   =      73.619488 
E_coul   =       3.005414 E_long   =     -11.350973 Press    =       8.599524
Loop time of 0.000789633 on 8 procs for 3 steps with 122 atoms

99.4% CPU use with 8 MPI tasks x 1 OpenMP threads

Minimization stats:
  Stopping criterion = energy tolerance
  Energy initial, next-to-last, final = 
      117.094707374326    115.12063451362   115.109606204163
  Force two-norm initial, final = 10.436732 5.796618
  Force max component initial, final = 4.5222715 2.5626008
  Final line search alpha, max atom move = 0.050501902 0.12941622
  Iterations, force evaluations = 3 5

MPI task timing breakdown:
Section |  min time  |  avg time  |  max time  |%varavg| %total
---------------------------------------------------------------
Pair    | 3.026e-06  | 4.7241e-05 | 0.00011846 |   0.0 |  5.98
Bond    | 9.61e-07   | 2.72e-05   | 5.4153e-05 |   0.0 |  3.44
Kspace  | 0.00036622 | 0.00045703 | 0.00053502 |   0.0 | 57.88
Neigh   | 0          | 0          | 0          |   0.0 |  0.00
Comm    | 7.409e-05  | 8.7294e-05 | 9.9937e-05 |   0.0 | 11.05
Output  | 0          | 0          | 0          |   0.0 |  0.00
Modify  | 0          | 0          | 0          |   0.0 |  0.00
Other   |            | 0.0001709  |            |       | 21.64

Nlocal:          15.25 ave          32 max           0 min
Histogram: 3 0 1 0 0 0 0 1 1 2
Nghost:          95.75 ave         120 max          71 min
Histogram: 1 1 0 1 1 2 0 0 1 1
Neighs:        363.125 ave         931 max           0 min
Histogram: 3 1 0 0 0 2 0 0 0 2

Total # of neighbors = 2905
Ave neighs/atom = 23.811475
Ave special neighs/atom = 5.7540984
Neighbor list builds = 0
Dangerous builds = 0
#now                 minimize the entire system
minimize             1.0e-4 1.0e-4 500 5000
Switching to 'neigh_modify every 1 delay 0 check yes' setting during minimization
PPPM initialization ...
  using 12-bit tables for long-range coulomb (src/kspace.cpp:342)
  G vector (1/distance) = 0.063991812
  grid = 3 3 3
  stencil order = 5
  estimated absolute RMS force accuracy = 0.036397473
  estimated relative force accuracy = 0.00010960991
  using double precision FFTW3
  3d grid and FFT values/proc = 343 8
Generated 28 of 28 mixed pair_coeff terms from geometric mixing rule
Per MPI rank memory allocation (min/avg/max) = 15.99 | 16.91 | 17.76 Mbytes
------------ Step            130 ----- CPU =            0 (sec) -------------
TotEng   =     115.109606 KinEng   =       0.000000 Temp     =       0.000000 
PotEng   =     115.109606 E_bond   =      10.382188 E_angle  =      18.153074 
E_dihed  =      21.204882 E_impro  =       0.095533 E_vdwl   =      73.619488 
E_coul   =       3.005414 E_long   =     -11.350973 Press    =       8.599524
------------ Step            131 ----- CPU =   0.00042017 (sec) -------------
TotEng   =     115.103269 KinEng   =       0.000000 Temp     =       0.000000 
PotEng   =     115.103269 E_bond   =      10.358641 E_angle  =      18.190778 
E_dihed  =      21.202651 E_impro  =       0.094514 E_vdwl   =      73.602108 
E_coul   =       3.005541 E_long   =     -11.350964 Press    =       8.555318
Loop time of 0.000445801 on 8 procs for 1 steps with 122 atoms

98.9% CPU use with 8 MPI tasks x 1 OpenMP threads

Minimization stats:
  Stopping criterion = energy tolerance
  Energy initial, next-to-last, final = 
      115.109606204163   115.109606204163    115.10326873067
  Force two-norm initial, final = 5.796618 3.8415563
  Force max component initial, final = 2.5626008 1.0473735
  Final line search alpha, max atom move = 0.039022855 0.040871503
  Iterations, force evaluations = 1 2

MPI task timing breakdown:
Section |  min time  |  avg time  |  max time  |%varavg| %total
---------------------------------------------------------------
Pair    | 1.503e-06  | 2.3939e-05 | 5.9591e-05 |   0.0 |  5.37
Bond    | 6.42e-07   | 1.3649e-05 | 2.692e-05  |   0.0 |  3.06
Kspace  | 0.00018588 | 0.00023171 | 0.00027042 |   0.0 | 51.98
Neigh   | 0          | 0          | 0          |   0.0 |  0.00
Comm    | 3.4926e-05 | 3.9863e-05 | 4.5776e-05 |   0.0 |  8.94
Output  | 0          | 0          | 0          |   0.0 |  0.00
Modify  | 0          | 0          | 0          |   0.0 |  0.00
Other   |            | 0.0001366  |            |       | 30.65

Nlocal:          15.25 ave          32 max           0 min
Histogram: 3 0 1 0 0 0 0 1 1 2
Nghost:          95.75 ave         120 max          71 min
Histogram: 1 1 0 1 1 2 0 0 1 1
Neighs:          362.5 ave         931 max           0 min
Histogram: 3 1 0 0 0 2 0 0 0 2

Total # of neighbors = 2900
Ave neighs/atom = 23.770492
Ave special neighs/atom = 5.7540984
Neighbor list builds = 0
Dangerous builds = 0
undump               1

print                .
.
print                =====================================
=====================================
print                "NVT dynamics to heat system"
NVT dynamics to heat system
print                =====================================
=====================================
print                .
.

reset_timestep       0
##fix                  shakeH all shake 0.0001 20 500 m 1.0079
velocity             all create 0.0 12345678 dist uniform
thermo               100
dump                 1 all custom 1000 ${sname}.heat.lammpstrj id type xu yu zu vx vy vz
dump                 1 all custom 1000 oleic_xligand.test.heat.lammpstrj id type xu yu zu vx vy vz
fix                  4 all nvt temp 1.0 ${rtemp} 100.0
fix                  4 all nvt temp 1.0 298 100.0
run                  10000
PPPM initialization ...
  using 12-bit tables for long-range coulomb (src/kspace.cpp:342)
  G vector (1/distance) = 0.063991812
  grid = 3 3 3
  stencil order = 5
  estimated absolute RMS force accuracy = 0.036397473
  estimated relative force accuracy = 0.00010960991
  using double precision FFTW3
  3d grid and FFT values/proc = 343 8
Generated 28 of 28 mixed pair_coeff terms from geometric mixing rule
Per MPI rank memory allocation (min/avg/max) = 14.86 | 15.79 | 16.64 Mbytes
------------ Step              0 ----- CPU =            0 (sec) -------------
TotEng   =     115.103269 KinEng   =       0.000000 Temp     =       0.000000 
PotEng   =     115.103269 E_bond   =      10.358641 E_angle  =      18.190778 
E_dihed  =      21.202651 E_impro  =       0.094514 E_vdwl   =      73.602108 
E_coul   =       3.005541 E_long   =     -11.350964 Press    =       8.555318
------------ Step            100 ----- CPU =  0.009464683 (sec) -------------
TotEng   =     115.156044 KinEng   =       0.677073 Temp     =       1.877224 
PotEng   =     114.478971 E_bond   =       9.928439 E_angle  =      17.680001 
E_dihed  =      20.713156 E_impro  =       0.089592 E_vdwl   =      74.417723 
E_coul   =       3.000954 E_long   =     -11.350894 Press    =      13.478330
------------ Step            200 ----- CPU =   0.01886043 (sec) -------------
TotEng   =     115.335645 KinEng   =       2.191288 Temp     =       6.075467 
PotEng   =     113.144357 E_bond   =      10.584181 E_angle  =      18.912194 
E_dihed  =      19.915443 E_impro  =       0.103639 E_vdwl   =      71.993012 
E_coul   =       2.986674 E_long   =     -11.350786 Press    =       3.712323
------------ Step            300 ----- CPU =   0.02825803 (sec) -------------
TotEng   =     115.674838 KinEng   =       4.143204 Temp     =      11.487265 
PotEng   =     111.531634 E_bond   =      11.252617 E_angle  =      20.795721 
E_dihed  =      18.694189 E_impro  =       0.153923 E_vdwl   =      69.059602 
E_coul   =       2.926481 E_long   =     -11.350899 Press    =      -5.586021
------------ Step            400 ----- CPU =   0.03776998 (sec) -------------
TotEng   =     115.638713 KinEng   =       5.267733 Temp     =      14.605084 
PotEng   =     110.370980 E_bond   =      10.761032 E_angle  =      22.286050 
E_dihed  =      18.432303 E_impro  =       0.215549 E_vdwl   =      67.375614 
E_coul   =       2.651666 E_long   =     -11.351234 Press    =      -6.471866
------------ Step            500 ----- CPU =   0.04721129 (sec) -------------
TotEng   =     115.295103 KinEng   =       5.331958 Temp     =      14.783152 
PotEng   =     109.963145 E_bond   =      10.571794 E_angle  =      23.609627 
E_dihed  =      18.664272 E_impro  =       0.377234 E_vdwl   =      65.740454 
E_coul   =       2.351462 E_long   =     -11.351697 Press    =      -6.987239
------------ Step            600 ----- CPU =    0.0566948 (sec) -------------
TotEng   =     115.149017 KinEng   =       6.779541 Temp     =      18.796656 
PotEng   =     108.369476 E_bond   =      10.432343 E_angle  =      23.282320 
E_dihed  =      18.293356 E_impro  =       0.484269 E_vdwl   =      65.062677 
E_coul   =       2.166849 E_long   =     -11.352337 Press    =      -6.250123
------------ Step            700 ----- CPU =   0.06620946 (sec) -------------
TotEng   =     115.082375 KinEng   =       8.253794 Temp     =      22.884107 
PotEng   =     106.828580 E_bond   =      10.192686 E_angle  =      20.933484 
E_dihed  =      17.893547 E_impro  =       0.453893 E_vdwl   =      66.419314 
E_coul   =       2.289057 E_long   =     -11.353401 Press    =      -1.459492
------------ Step            800 ----- CPU =   0.07564131 (sec) -------------
TotEng   =     114.781163 KinEng   =       6.205826 Temp     =      17.206000 
PotEng   =     108.575337 E_bond   =       9.482495 E_angle  =      19.859643 
E_dihed  =      18.999859 E_impro  =       0.379534 E_vdwl   =      68.999304 
E_coul   =       2.208204 E_long   =     -11.353701 Press    =       7.089140
------------ Step            900 ----- CPU =   0.08519749 (sec) -------------
TotEng   =     115.476925 KinEng   =       8.640271 Temp     =      23.955634 
PotEng   =     106.836654 E_bond   =      10.839442 E_angle  =      23.066749 
E_dihed  =      15.041904 E_impro  =       0.273090 E_vdwl   =      66.942689 
E_coul   =       2.026368 E_long   =     -11.353586 Press    =      -2.532269
------------ Step           1000 ----- CPU =   0.09490579 (sec) -------------
TotEng   =     116.971385 KinEng   =       8.664369 Temp     =      24.022449 
PotEng   =     108.307016 E_bond   =      10.839343 E_angle  =      25.330837 
E_dihed  =      13.917978 E_impro  =       0.199177 E_vdwl   =      67.095134 
E_coul   =       2.278081 E_long   =     -11.353533 Press    =      -1.528966
------------ Step           1100 ----- CPU =    0.1044212 (sec) -------------
TotEng   =     118.331123 KinEng   =       6.972307 Temp     =      19.331111 
PotEng   =     111.358816 E_bond   =      11.681229 E_angle  =      21.321114 
E_dihed  =      19.073757 E_impro  =       0.377673 E_vdwl   =      67.639196 
E_coul   =       2.620134 E_long   =     -11.354287 Press    =      -9.616151
------------ Step           1200 ----- CPU =    0.1139904 (sec) -------------
TotEng   =     119.453522 KinEng   =       4.793091 Temp     =      13.289113 
PotEng   =     114.660431 E_bond   =      10.982616 E_angle  =      22.567731 
E_dihed  =      20.760458 E_impro  =       0.233971 E_vdwl   =      68.828642 
E_coul   =       2.641792 E_long   =     -11.354778 Press    =      -4.126244
------------ Step           1300 ----- CPU =    0.1234824 (sec) -------------
TotEng   =     121.010326 KinEng   =       7.957888 Temp     =      22.063690 
PotEng   =     113.052438 E_bond   =       9.744407 E_angle  =      22.527310 
E_dihed  =      20.591418 E_impro  =       0.440715 E_vdwl   =      68.462868 
E_coul   =       2.639837 E_long   =     -11.354117 Press    =       5.138512
------------ Step           1400 ----- CPU =    0.1331151 (sec) -------------
TotEng   =     122.673015 KinEng   =       7.080787 Temp     =      19.631878 
PotEng   =     115.592229 E_bond   =      10.242132 E_angle  =      24.817229 
E_dihed  =      20.954852 E_impro  =       0.849600 E_vdwl   =      67.476140 
E_coul   =       2.605456 E_long   =     -11.353180 Press    =       2.002732
------------ Step           1500 ----- CPU =    0.1426847 (sec) -------------
TotEng   =     125.123281 KinEng   =       8.795642 Temp     =      24.386409 
PotEng   =     116.327639 E_bond   =       9.022842 E_angle  =      25.694611 
E_dihed  =      21.643067 E_impro  =       0.755655 E_vdwl   =      67.610643 
E_coul   =       2.953963 E_long   =     -11.353142 Press    =       7.600294
------------ Step           1600 ----- CPU =    0.1523362 (sec) -------------
TotEng   =     127.063953 KinEng   =      11.750742 Temp     =      32.579591 
PotEng   =     115.313211 E_bond   =       9.831586 E_angle  =      22.843515 
E_dihed  =      21.372560 E_impro  =       0.654602 E_vdwl   =      69.335620 
E_coul   =       2.629543 E_long   =     -11.354214 Press    =       3.017942
------------ Step           1700 ----- CPU =    0.1620094 (sec) -------------
TotEng   =     130.384096 KinEng   =      13.640002 Temp     =      37.817669 
PotEng   =     116.744094 E_bond   =      10.848925 E_angle  =      24.054072 
E_dihed  =      21.674892 E_impro  =       0.332187 E_vdwl   =      68.163625 
E_coul   =       3.023722 E_long   =     -11.353328 Press    =      -3.284042
------------ Step           1800 ----- CPU =    0.1714867 (sec) -------------
TotEng   =     133.522288 KinEng   =      14.465404 Temp     =      40.106143 
PotEng   =     119.056884 E_bond   =      11.707051 E_angle  =      28.719767 
E_dihed  =      19.617858 E_impro  =       0.220037 E_vdwl   =      67.073434 
E_coul   =       3.071062 E_long   =     -11.352326 Press    =      -7.236331
------------ Step           1900 ----- CPU =    0.1810746 (sec) -------------
TotEng   =     136.454430 KinEng   =      14.221666 Temp     =      39.430366 
PotEng   =     122.232764 E_bond   =      11.739748 E_angle  =      28.073292 
E_dihed  =      22.578871 E_impro  =       0.135973 E_vdwl   =      68.422676 
E_coul   =       2.634316 E_long   =     -11.352111 Press    =      -9.344297
------------ Step           2000 ----- CPU =    0.1907593 (sec) -------------
TotEng   =     139.953661 KinEng   =      17.295390 Temp     =      47.952438 
PotEng   =     122.658271 E_bond   =       9.899160 E_angle  =      32.376870 
E_dihed  =      18.474257 E_impro  =       0.220412 E_vdwl   =      70.479726 
E_coul   =       2.558272 E_long   =     -11.350426 Press    =       7.697231
------------ Step           2100 ----- CPU =    0.2006105 (sec) -------------
TotEng   =     144.255143 KinEng   =      23.492858 Temp     =      65.135265 
PotEng   =     120.762285 E_bond   =      11.544724 E_angle  =      26.658907 
E_dihed  =      19.171316 E_impro  =       0.790433 E_vdwl   =      70.917200 
E_coul   =       3.027923 E_long   =     -11.348219 Press    =       1.577033
------------ Step           2200 ----- CPU =    0.2105727 (sec) -------------
TotEng   =     147.506128 KinEng   =      29.813707 Temp     =      82.660173 
PotEng   =     117.692421 E_bond   =      11.948984 E_angle  =      23.015052 
E_dihed  =      21.521169 E_impro  =       0.494042 E_vdwl   =      69.307732 
E_coul   =       2.753746 E_long   =     -11.348305 Press    =      -3.275852
------------ Step           2300 ----- CPU =    0.2205165 (sec) -------------
TotEng   =     147.933568 KinEng   =      24.533190 Temp     =      68.019643 
PotEng   =     123.400378 E_bond   =      13.736999 E_angle  =      27.357968 
E_dihed  =      19.375975 E_impro  =       0.650696 E_vdwl   =      71.377554 
E_coul   =       2.247549 E_long   =     -11.346364 Press    =      -8.766850
------------ Step           2400 ----- CPU =    0.2305302 (sec) -------------
TotEng   =     148.619908 KinEng   =      21.511723 Temp     =      59.642457 
PotEng   =     127.108185 E_bond   =      14.047509 E_angle  =      25.534669 
E_dihed  =      29.234606 E_impro  =       1.139934 E_vdwl   =      66.279135 
E_coul   =       2.218694 E_long   =     -11.346363 Press    =     -23.447300
------------ Step           2500 ----- CPU =    0.2404052 (sec) -------------
TotEng   =     151.188038 KinEng   =      19.996832 Temp     =      55.442337 
PotEng   =     131.191206 E_bond   =       8.161164 E_angle  =      23.448820 
E_dihed  =      39.081612 E_impro  =       0.299625 E_vdwl   =      69.520472 
E_coul   =       2.025007 E_long   =     -11.345495 Press    =      23.240605
------------ Step           2600 ----- CPU =    0.2503001 (sec) -------------
TotEng   =     154.842842 KinEng   =      19.398130 Temp     =      53.782402 
PotEng   =     135.444712 E_bond   =      11.073961 E_angle  =      19.141129 
E_dihed  =      39.894363 E_impro  =       0.529528 E_vdwl   =      74.076769 
E_coul   =       2.073793 E_long   =     -11.344830 Press    =      10.849796
------------ Step           2700 ----- CPU =    0.2601957 (sec) -------------
TotEng   =     159.548695 KinEng   =      23.882868 Temp     =      66.216590 
PotEng   =     135.665827 E_bond   =      10.547461 E_angle  =      26.188432 
E_dihed  =      37.682901 E_impro  =       0.648586 E_vdwl   =      70.016384 
E_coul   =       1.924994 E_long   =     -11.342930 Press    =       7.894950
------------ Step           2800 ----- CPU =    0.2702133 (sec) -------------
TotEng   =     164.634970 KinEng   =      36.780530 Temp     =     101.976080 
PotEng   =     127.854440 E_bond   =       9.978630 E_angle  =      20.461564 
E_dihed  =      33.968413 E_impro  =       1.177779 E_vdwl   =      71.810420 
E_coul   =       1.801811 E_long   =     -11.344177 Press    =      13.929168
------------ Step           2900 ----- CPU =    0.2802454 (sec) -------------
TotEng   =     168.396314 KinEng   =      29.777357 Temp     =      82.559390 
PotEng   =     138.618957 E_bond   =      15.099856 E_angle  =      37.422756 
E_dihed  =      22.953142 E_impro  =       1.076353 E_vdwl   =      70.639877 
E_coul   =       2.774727 E_long   =     -11.347754 Press    =      -6.241810
------------ Step           3000 ----- CPU =    0.2903167 (sec) -------------
TotEng   =     169.598719 KinEng   =      36.569290 Temp     =     101.390404 
PotEng   =     133.029429 E_bond   =      13.624048 E_angle  =      27.020241 
E_dihed  =      26.634205 E_impro  =       0.553104 E_vdwl   =      73.557936 
E_coul   =       2.988482 E_long   =     -11.348587 Press    =      -6.648239
------------ Step           3100 ----- CPU =    0.3002111 (sec) -------------
TotEng   =     168.382110 KinEng   =      34.217029 Temp     =      94.868630 
PotEng   =     134.165081 E_bond   =       9.108919 E_angle  =      32.794178 
E_dihed  =      25.503435 E_impro  =       0.724807 E_vdwl   =      74.779146 
E_coul   =       2.604393 E_long   =     -11.349798 Press    =      30.924401
------------ Step           3200 ----- CPU =    0.3099572 (sec) -------------
TotEng   =     165.273110 KinEng   =      31.861797 Temp     =      88.338617 
PotEng   =     133.411313 E_bond   =      14.006177 E_angle  =      31.459040 
E_dihed  =      31.629240 E_impro  =       0.887246 E_vdwl   =      64.203700 
E_coul   =       2.576610 E_long   =     -11.350700 Press    =     -22.021096
------------ Step           3300 ----- CPU =    0.3197204 (sec) -------------
TotEng   =     163.837568 KinEng   =      29.022991 Temp     =      80.467867 
PotEng   =     134.814578 E_bond   =      15.077491 E_angle  =      29.381490 
E_dihed  =      27.815091 E_impro  =       0.264425 E_vdwl   =      71.011007 
E_coul   =       2.617206 E_long   =     -11.352131 Press    =     -13.366297
------------ Step           3400 ----- CPU =    0.3294665 (sec) -------------
TotEng   =     164.861064 KinEng   =      32.898374 Temp     =      91.212586 
PotEng   =     131.962690 E_bond   =       8.716896 E_angle  =      25.956487 
E_dihed  =      23.748968 E_impro  =       0.619763 E_vdwl   =      82.140553 
E_coul   =       2.132710 E_long   =     -11.352687 Press    =      48.197302
------------ Step           3500 ----- CPU =    0.3391023 (sec) -------------
TotEng   =     168.861849 KinEng   =      40.922924 Temp     =     113.461099 
PotEng   =     127.938925 E_bond   =      13.045887 E_angle  =      31.554524 
E_dihed  =      20.966358 E_impro  =       0.412724 E_vdwl   =      70.449556 
E_coul   =       2.862588 E_long   =     -11.352714 Press    =       3.438699
------------ Step           3600 ----- CPU =    0.3487953 (sec) -------------
TotEng   =     173.046300 KinEng   =      30.223800 Temp     =      83.797179 
PotEng   =     142.822500 E_bond   =      21.000036 E_angle  =      42.386291 
E_dihed  =      23.642362 E_impro  =       0.697205 E_vdwl   =      63.017362 
E_coul   =       3.431059 E_long   =     -11.351816 Press    =     -51.196225
------------ Step           3700 ----- CPU =    0.3582991 (sec) -------------
TotEng   =     178.416309 KinEng   =      38.882799 Temp     =     107.804739 
PotEng   =     139.533510 E_bond   =      12.050008 E_angle  =      40.234160 
E_dihed  =      21.431614 E_impro  =       0.893080 E_vdwl   =      73.347898 
E_coul   =       2.927679 E_long   =     -11.350930 Press    =      17.224424
------------ Step           3800 ----- CPU =    0.3677517 (sec) -------------
TotEng   =     182.729511 KinEng   =      49.032952 Temp     =     135.946606 
PotEng   =     133.696559 E_bond   =      13.947022 E_angle  =      26.650240 
E_dihed  =      26.160725 E_impro  =       0.922016 E_vdwl   =      74.248131 
E_coul   =       3.120925 E_long   =     -11.352499 Press    =      12.451385
------------ Step           3900 ----- CPU =     0.377095 (sec) -------------
TotEng   =     183.467998 KinEng   =      43.269611 Temp     =     119.967419 
PotEng   =     140.198387 E_bond   =      13.210143 E_angle  =      35.014865 
E_dihed  =      26.921784 E_impro  =       0.718166 E_vdwl   =      73.021982 
E_coul   =       2.661370 E_long   =     -11.349923 Press    =      11.946593
------------ Step           4000 ----- CPU =    0.3865548 (sec) -------------
TotEng   =     181.628550 KinEng   =      46.069313 Temp     =     127.729750 
PotEng   =     135.559237 E_bond   =      16.854807 E_angle  =      26.627526 
E_dihed  =      26.480657 E_impro  =       1.297945 E_vdwl   =      73.218844 
E_coul   =       2.431657 E_long   =     -11.352199 Press    =     -14.260049
------------ Step           4100 ----- CPU =    0.3959472 (sec) -------------
TotEng   =     178.640706 KinEng   =      45.636544 Temp     =     126.529876 
PotEng   =     133.004161 E_bond   =      12.560119 E_angle  =      27.837388 
E_dihed  =      31.582397 E_impro  =       1.011928 E_vdwl   =      68.925706 
E_coul   =       2.439219 E_long   =     -11.352596 Press    =      13.898041
------------ Step           4200 ----- CPU =    0.4052066 (sec) -------------
TotEng   =     175.746504 KinEng   =      42.374693 Temp     =     117.486211 
PotEng   =     133.371811 E_bond   =      14.811572 E_angle  =      23.612794 
E_dihed  =      32.954009 E_impro  =       0.559169 E_vdwl   =      70.778903 
E_coul   =       2.008951 E_long   =     -11.353586 Press    =      -7.001968
------------ Step           4300 ----- CPU =    0.4144657 (sec) -------------
TotEng   =     174.659354 KinEng   =      39.509363 Temp     =     109.541923 
PotEng   =     135.149991 E_bond   =      16.506329 E_angle  =      27.746649 
E_dihed  =      27.867630 E_impro  =       0.815690 E_vdwl   =      71.827501 
E_coul   =       1.737346 E_long   =     -11.351153 Press    =     -17.351402
------------ Step           4400 ----- CPU =    0.4237509 (sec) -------------
TotEng   =     176.602309 KinEng   =      48.947694 Temp     =     135.710222 
PotEng   =     127.654616 E_bond   =      13.952914 E_angle  =      25.142405 
E_dihed  =      28.535631 E_impro  =       0.460193 E_vdwl   =      69.033016 
E_coul   =       1.882182 E_long   =     -11.351725 Press    =     -10.860991
------------ Step           4500 ----- CPU =     0.433093 (sec) -------------
TotEng   =     179.684553 KinEng   =      34.939961 Temp     =      96.872998 
PotEng   =     144.744593 E_bond   =      11.004856 E_angle  =      37.367751 
E_dihed  =      30.701184 E_impro  =       1.482623 E_vdwl   =      73.529527 
E_coul   =       2.010843 E_long   =     -11.352191 Press    =      25.807049
------------ Step           4600 ----- CPU =    0.4424356 (sec) -------------
TotEng   =     185.301206 KinEng   =      50.998123 Temp     =     141.395153 
PotEng   =     134.303083 E_bond   =      14.185397 E_angle  =      26.202584 
E_dihed  =      32.527865 E_impro  =       1.107066 E_vdwl   =      69.707530 
E_coul   =       1.922513 E_long   =     -11.349872 Press    =      -3.983181
------------ Step           4700 ----- CPU =    0.4517868 (sec) -------------
TotEng   =     190.798578 KinEng   =      49.760884 Temp     =     137.964838 
PotEng   =     141.037694 E_bond   =      14.094699 E_angle  =      25.753386 
E_dihed  =      34.418062 E_impro  =       1.685933 E_vdwl   =      74.272951 
E_coul   =       2.157137 E_long   =     -11.344475 Press    =      -2.096182
------------ Step           4800 ----- CPU =    0.4610345 (sec) -------------
TotEng   =     195.475370 KinEng   =      48.996417 Temp     =     135.845311 
PotEng   =     146.478953 E_bond   =      12.681614 E_angle  =      35.224476 
E_dihed  =      34.500692 E_impro  =       1.854998 E_vdwl   =      71.975963 
E_coul   =       1.588072 E_long   =     -11.346862 Press    =       8.395349
------------ Step           4900 ----- CPU =    0.4704366 (sec) -------------
TotEng   =     200.184504 KinEng   =      45.249005 Temp     =     125.455400 
PotEng   =     154.935500 E_bond   =      20.198500 E_angle  =      37.526293 
E_dihed  =      33.884935 E_impro  =       1.487505 E_vdwl   =      71.165550 
E_coul   =       2.016579 E_long   =     -11.343861 Press    =      -3.981605
------------ Step           5000 ----- CPU =    0.4800618 (sec) -------------
TotEng   =     205.390972 KinEng   =      48.196814 Temp     =     133.628366 
PotEng   =     157.194158 E_bond   =      13.004729 E_angle  =      32.457241 
E_dihed  =      40.796310 E_impro  =       1.168697 E_vdwl   =      78.316470 
E_coul   =       2.796979 E_long   =     -11.346268 Press    =      14.546969
------------ Step           5100 ----- CPU =    0.4898306 (sec) -------------
TotEng   =     210.780561 KinEng   =      56.067797 Temp     =     155.451108 
PotEng   =     154.712764 E_bond   =      21.156963 E_angle  =      33.369037 
E_dihed  =      34.814768 E_impro  =       2.602008 E_vdwl   =      71.288796 
E_coul   =       2.825647 E_long   =     -11.344455 Press    =     -32.908861
------------ Step           5200 ----- CPU =    0.4995064 (sec) -------------
TotEng   =     215.867353 KinEng   =      57.388133 Temp     =     159.111814 
PotEng   =     158.479219 E_bond   =      18.213457 E_angle  =      37.968517 
E_dihed  =      40.804005 E_impro  =       0.914532 E_vdwl   =      69.628875 
E_coul   =       2.296584 E_long   =     -11.346751 Press    =      -5.433063
------------ Step           5300 ----- CPU =    0.5092238 (sec) -------------
TotEng   =     219.936483 KinEng   =      65.919939 Temp     =     182.766722 
PotEng   =     154.016545 E_bond   =      10.443991 E_angle  =      37.267714 
E_dihed  =      36.308185 E_impro  =       1.530672 E_vdwl   =      77.006302 
E_coul   =       2.807341 E_long   =     -11.347661 Press    =      52.632205
------------ Step           5400 ----- CPU =    0.5191154 (sec) -------------
TotEng   =     220.814281 KinEng   =      63.477037 Temp     =     175.993641 
PotEng   =     157.337244 E_bond   =      23.389136 E_angle  =      35.979535 
E_dihed  =      34.161574 E_impro  =       1.176336 E_vdwl   =      70.837278 
E_coul   =       3.140318 E_long   =     -11.346932 Press    =     -40.675444
------------ Step           5500 ----- CPU =    0.5289649 (sec) -------------
TotEng   =     219.810825 KinEng   =      60.332646 Temp     =     167.275639 
PotEng   =     159.478180 E_bond   =      16.543812 E_angle  =      42.422012 
E_dihed  =      42.672550 E_impro  =       2.119446 E_vdwl   =      64.153336 
E_coul   =       2.915583 E_long   =     -11.348559 Press    =      -8.094572
------------ Step           5600 ----- CPU =    0.5388173 (sec) -------------
TotEng   =     218.495899 KinEng   =      51.974314 Temp     =     144.101697 
PotEng   =     166.521585 E_bond   =      16.337478 E_angle  =      31.919129 
E_dihed  =      50.274976 E_impro  =       4.747672 E_vdwl   =      71.197974 
E_coul   =       3.393151 E_long   =     -11.348795 Press    =       2.383738
------------ Step           5700 ----- CPU =    0.5485148 (sec) -------------
TotEng   =     219.855626 KinEng   =      57.886409 Temp     =     160.493311 
PotEng   =     161.969217 E_bond   =      17.389976 E_angle  =      31.446339 
E_dihed  =      52.099619 E_impro  =       2.121047 E_vdwl   =      67.236248 
E_coul   =       3.026442 E_long   =     -11.350454 Press    =      -3.682130
------------ Step           5800 ----- CPU =    0.5582594 (sec) -------------
TotEng   =     225.605346 KinEng   =      59.568449 Temp     =     165.156861 
PotEng   =     166.036897 E_bond   =      16.393358 E_angle  =      33.647993 
E_dihed  =      51.148082 E_impro  =       3.770128 E_vdwl   =      68.629961 
E_coul   =       3.798923 E_long   =     -11.351549 Press    =     -14.026684
------------ Step           5900 ----- CPU =    0.5679995 (sec) -------------
TotEng   =     230.833546 KinEng   =      68.354654 Temp     =     189.517105 
PotEng   =     162.478892 E_bond   =      14.504822 E_angle  =      29.073099 
E_dihed  =      36.535523 E_impro  =       6.305163 E_vdwl   =      83.840836 
E_coul   =       3.570783 E_long   =     -11.351334 Press    =      35.705800
------------ Step           6000 ----- CPU =    0.5777447 (sec) -------------
TotEng   =     232.290760 KinEng   =      70.359419 Temp     =     195.075429 
PotEng   =     161.931341 E_bond   =      13.396013 E_angle  =      36.816089 
E_dihed  =      38.070301 E_impro  =       2.201766 E_vdwl   =      79.125764 
E_coul   =       3.672800 E_long   =     -11.351392 Press    =      40.116794
------------ Step           6100 ----- CPU =    0.5875826 (sec) -------------
TotEng   =     229.302785 KinEng   =      56.819862 Temp     =     157.536249 
PotEng   =     172.482923 E_bond   =      35.393449 E_angle  =      46.530568 
E_dihed  =      33.233325 E_impro  =       3.393907 E_vdwl   =      62.148305 
E_coul   =       3.133296 E_long   =     -11.349927 Press    =     -90.048373
------------ Step           6200 ----- CPU =    0.5974046 (sec) -------------
TotEng   =     227.409679 KinEng   =      77.179114 Temp     =     213.983416 
PotEng   =     150.230565 E_bond   =      15.561603 E_angle  =      34.235168 
E_dihed  =      30.165860 E_impro  =       1.277259 E_vdwl   =      78.318263 
E_coul   =       2.022946 E_long   =     -11.350534 Press    =      13.385003
------------ Step           6300 ----- CPU =     0.607274 (sec) -------------
TotEng   =     225.126556 KinEng   =      59.068193 Temp     =     163.769873 
PotEng   =     166.058363 E_bond   =      11.319987 E_angle  =      35.114236 
E_dihed  =      37.103788 E_impro  =       1.315904 E_vdwl   =      90.767006 
E_coul   =       1.788890 E_long   =     -11.351448 Press    =      63.502170
------------ Step           6400 ----- CPU =    0.6170622 (sec) -------------
TotEng   =     224.710275 KinEng   =      77.094701 Temp     =     213.749377 
PotEng   =     147.615574 E_bond   =      18.513301 E_angle  =      41.574880 
E_dihed  =      27.639727 E_impro  =       1.464079 E_vdwl   =      68.570347 
E_coul   =       1.201639 E_long   =     -11.348398 Press    =      -9.172782
------------ Step           6500 ----- CPU =     0.626958 (sec) -------------
TotEng   =     228.834385 KinEng   =      66.617704 Temp     =     184.701315 
PotEng   =     162.216681 E_bond   =      30.694657 E_angle  =      44.277161 
E_dihed  =      35.043587 E_impro  =       2.090620 E_vdwl   =      59.338214 
E_coul   =       2.115338 E_long   =     -11.342897 Press    =     -74.598132
------------ Step           6600 ----- CPU =     0.636604 (sec) -------------
TotEng   =     238.287000 KinEng   =      78.233561 Temp     =     216.906929 
PotEng   =     160.053439 E_bond   =      10.573796 E_angle  =      39.496738 
E_dihed  =      30.833319 E_impro  =       2.911072 E_vdwl   =      85.246335 
E_coul   =       2.334403 E_long   =     -11.342223 Press    =      85.610661
------------ Step           6700 ----- CPU =    0.6462207 (sec) -------------
TotEng   =     243.547303 KinEng   =      78.798257 Temp     =     218.472580 
PotEng   =     164.749046 E_bond   =      16.506490 E_angle  =      48.452354 
E_dihed  =      29.652235 E_impro  =       2.748298 E_vdwl   =      76.538704 
E_coul   =       2.192252 E_long   =     -11.341287 Press    =      17.552358
------------ Step           6800 ----- CPU =    0.6559036 (sec) -------------
TotEng   =     244.984379 KinEng   =      69.721467 Temp     =     193.306673 
PotEng   =     175.262912 E_bond   =      26.760891 E_angle  =      58.119668 
E_dihed  =      32.628804 E_impro  =       2.738011 E_vdwl   =      63.987672 
E_coul   =       2.367879 E_long   =     -11.340014 Press    =     -51.894117
------------ Step           6900 ----- CPU =    0.6654388 (sec) -------------
TotEng   =     242.327985 KinEng   =      78.800707 Temp     =     218.479375 
PotEng   =     163.527277 E_bond   =      14.533282 E_angle  =      38.919415 
E_dihed  =      35.228675 E_impro  =       3.475429 E_vdwl   =      80.683662 
E_coul   =       2.032126 E_long   =     -11.345312 Press    =      50.358523
------------ Step           7000 ----- CPU =    0.6752236 (sec) -------------
TotEng   =     237.408008 KinEng   =      78.741425 Temp     =     218.315011 
PotEng   =     158.666583 E_bond   =      18.669616 E_angle  =      37.178415 
E_dihed  =      30.428773 E_impro  =       2.429387 E_vdwl   =      78.507499 
E_coul   =       2.794555 E_long   =     -11.341662 Press    =      27.078216
------------ Step           7100 ----- CPU =    0.6848422 (sec) -------------
TotEng   =     234.881871 KinEng   =      58.150731 Temp     =     161.226158 
PotEng   =     176.731140 E_bond   =      33.347543 E_angle  =      46.227979 
E_dihed  =      37.785486 E_impro  =       2.318951 E_vdwl   =      65.606274 
E_coul   =       2.790325 E_long   =     -11.345419 Press    =     -75.769849
------------ Step           7200 ----- CPU =    0.6944641 (sec) -------------
TotEng   =     238.471574 KinEng   =      67.348731 Temp     =     186.728129 
PotEng   =     171.122842 E_bond   =      16.769153 E_angle  =      33.625929 
E_dihed  =      40.229190 E_impro  =       3.980357 E_vdwl   =      85.092273 
E_coul   =       2.769994 E_long   =     -11.344054 Press    =      66.617774
------------ Step           7300 ----- CPU =     0.704015 (sec) -------------
TotEng   =     244.177555 KinEng   =      68.020799 Temp     =     188.591474 
PotEng   =     176.156756 E_bond   =      16.553537 E_angle  =      56.648050 
E_dihed  =      42.791458 E_impro  =       1.912188 E_vdwl   =      67.208208 
E_coul   =       2.387602 E_long   =     -11.344287 Press    =      16.351426
------------ Step           7400 ----- CPU =    0.7136298 (sec) -------------
TotEng   =     248.928860 KinEng   =      80.907752 Temp     =     224.321273 
PotEng   =     168.021109 E_bond   =      17.875093 E_angle  =      49.633710 
E_dihed  =      38.066030 E_impro  =       2.043107 E_vdwl   =      69.067937 
E_coul   =       2.676832 E_long   =     -11.341601 Press    =      20.744616
------------ Step           7500 ----- CPU =    0.7233684 (sec) -------------
TotEng   =     251.646797 KinEng   =      73.147490 Temp     =     202.805512 
PotEng   =     178.499307 E_bond   =      26.547587 E_angle  =      48.745067 
E_dihed  =      27.394245 E_impro  =       2.763804 E_vdwl   =      81.897535 
E_coul   =       2.491342 E_long   =     -11.340273 Press    =     -24.695677
------------ Step           7600 ----- CPU =    0.7331718 (sec) -------------
TotEng   =     252.600804 KinEng   =      83.405099 Temp     =     231.245310 
PotEng   =     169.195705 E_bond   =      16.879016 E_angle  =      59.764775 
E_dihed  =      30.707171 E_impro  =       2.047047 E_vdwl   =      68.297158 
E_coul   =       2.843523 E_long   =     -11.342986 Press    =      18.176990
------------ Step           7700 ----- CPU =    0.7431337 (sec) -------------
TotEng   =     252.030223 KinEng   =      63.293516 Temp     =     175.484817 
PotEng   =     188.736707 E_bond   =      20.399072 E_angle  =      66.842289 
E_dihed  =      28.200378 E_impro  =       2.180553 E_vdwl   =      79.541853 
E_coul   =       2.916667 E_long   =     -11.344105 Press    =      35.257909
------------ Step           7800 ----- CPU =    0.7532709 (sec) -------------
TotEng   =     254.229459 KinEng   =      78.149926 Temp     =     216.675046 
PotEng   =     176.079534 E_bond   =      26.287019 E_angle  =      53.890954 
E_dihed  =      28.551320 E_impro  =       3.909167 E_vdwl   =      71.567794 
E_coul   =       3.216316 E_long   =     -11.343037 Press    =     -30.465064
------------ Step           7900 ----- CPU =    0.7634473 (sec) -------------
TotEng   =     259.712334 KinEng   =      87.624230 Temp     =     242.943085 
PotEng   =     172.088104 E_bond   =      29.305094 E_angle  =      48.653372 
E_dihed  =      33.027232 E_impro  =       2.518401 E_vdwl   =      67.427080 
E_coul   =       2.502551 E_long   =     -11.345627 Press    =     -54.877246
------------ Step           8000 ----- CPU =    0.7736562 (sec) -------------
TotEng   =     267.515629 KinEng   =      88.247993 Temp     =     244.672503 
PotEng   =     179.267636 E_bond   =      24.723433 E_angle  =      42.948727 
E_dihed  =      41.777268 E_impro  =       2.370187 E_vdwl   =      76.863039 
E_coul   =       1.931842 E_long   =     -11.346859 Press    =      -3.963037
------------ Step           8100 ----- CPU =    0.7838562 (sec) -------------
TotEng   =     273.888623 KinEng   =      88.729847 Temp     =     246.008470 
PotEng   =     185.158776 E_bond   =      18.213899 E_angle  =      58.089489 
E_dihed  =      37.801864 E_impro  =       2.624694 E_vdwl   =      76.860827 
E_coul   =       2.914086 E_long   =     -11.346083 Press    =      18.487717
------------ Step           8200 ----- CPU =     0.793709 (sec) -------------
TotEng   =     277.576296 KinEng   =      82.315390 Temp     =     228.224030 
PotEng   =     195.260906 E_bond   =      26.980242 E_angle  =      49.066817 
E_dihed  =      43.344393 E_impro  =       2.668651 E_vdwl   =      81.326905 
E_coul   =       3.223805 E_long   =     -11.349908 Press    =     -17.427400
------------ Step           8300 ----- CPU =     0.803746 (sec) -------------
TotEng   =     280.599347 KinEng   =      82.843726 Temp     =     229.688870 
PotEng   =     197.755621 E_bond   =      19.982307 E_angle  =      60.383331 
E_dihed  =      41.494068 E_impro  =       1.959392 E_vdwl   =      82.665357 
E_coul   =       2.625332 E_long   =     -11.354167 Press    =      13.821875
------------ Step           8400 ----- CPU =    0.8135161 (sec) -------------
TotEng   =     283.391306 KinEng   =      86.993822 Temp     =     241.195244 
PotEng   =     196.397484 E_bond   =      22.381808 E_angle  =      62.380270 
E_dihed  =      34.730808 E_impro  =       2.785874 E_vdwl   =      82.297571 
E_coul   =       3.175255 E_long   =     -11.354103 Press    =      30.607954
------------ Step           8500 ----- CPU =    0.8235142 (sec) -------------
TotEng   =     284.442994 KinEng   =      90.093475 Temp     =     249.789205 
PotEng   =     194.349520 E_bond   =      23.929410 E_angle  =      66.606293 
E_dihed  =      27.192869 E_impro  =       2.061245 E_vdwl   =      83.177339 
E_coul   =       2.736035 E_long   =     -11.353672 Press    =      23.263570
------------ Step           8600 ----- CPU =    0.8334628 (sec) -------------
TotEng   =     283.488308 KinEng   =      88.877508 Temp     =     246.417870 
PotEng   =     194.610799 E_bond   =      28.736245 E_angle  =      52.326774 
E_dihed  =      36.132490 E_impro  =       2.367338 E_vdwl   =      83.334802 
E_coul   =       3.066115 E_long   =     -11.352965 Press    =       0.132515
------------ Step           8700 ----- CPU =    0.8435232 (sec) -------------
TotEng   =     281.349425 KinEng   =      97.348385 Temp     =     269.903851 
PotEng   =     184.001039 E_bond   =      26.166026 E_angle  =      54.791313 
E_dihed  =      37.063830 E_impro  =       3.875542 E_vdwl   =      70.414871 
E_coul   =       3.042047 E_long   =     -11.352590 Press    =       5.875259
------------ Step           8800 ----- CPU =    0.8534783 (sec) -------------
TotEng   =     276.924186 KinEng   =      98.598653 Temp     =     273.370287 
PotEng   =     178.325533 E_bond   =      23.570782 E_angle  =      44.140986 
E_dihed  =      30.216436 E_impro  =       6.080426 E_vdwl   =      82.290999 
E_coul   =       3.377246 E_long   =     -11.351341 Press    =      34.026792
------------ Step           8900 ----- CPU =     0.863401 (sec) -------------
TotEng   =     268.487774 KinEng   =      80.829813 Temp     =     224.105182 
PotEng   =     187.657961 E_bond   =      25.851022 E_angle  =      45.845437 
E_dihed  =      44.392450 E_impro  =       2.904070 E_vdwl   =      77.311629 
E_coul   =       2.704182 E_long   =     -11.350830 Press    =      16.455219
------------ Step           9000 ----- CPU =    0.8733493 (sec) -------------
TotEng   =     264.855902 KinEng   =      91.123031 Temp     =     252.643708 
PotEng   =     173.732871 E_bond   =      32.641446 E_angle  =      46.428844 
E_dihed  =      40.519017 E_impro  =       1.160886 E_vdwl   =      61.548375 
E_coul   =       2.787039 E_long   =     -11.352736 Press    =     -38.302103
------------ Step           9100 ----- CPU =     0.883097 (sec) -------------
TotEng   =     266.906240 KinEng   =      86.077097 Temp     =     238.653574 
PotEng   =     180.829143 E_bond   =      22.569866 E_angle  =      54.329923 
E_dihed  =      34.539716 E_impro  =       1.933202 E_vdwl   =      75.735179 
E_coul   =       3.072926 E_long   =     -11.351669 Press    =      17.637946
------------ Step           9200 ----- CPU =    0.8928425 (sec) -------------
TotEng   =     274.663638 KinEng   =      90.878900 Temp     =     251.966839 
PotEng   =     183.784738 E_bond   =      24.763261 E_angle  =      44.550077 
E_dihed  =      39.999645 E_impro  =       1.915955 E_vdwl   =      80.781175 
E_coul   =       3.125478 E_long   =     -11.350853 Press    =      31.493270
------------ Step           9300 ----- CPU =    0.9026795 (sec) -------------
TotEng   =     283.763124 KinEng   =      88.182425 Temp     =     244.490713 
PotEng   =     195.580699 E_bond   =      30.528316 E_angle  =      67.478751 
E_dihed  =      37.467020 E_impro  =       5.365618 E_vdwl   =      63.694582 
E_coul   =       2.396310 E_long   =     -11.349899 Press    =     -54.028878
------------ Step           9400 ----- CPU =     0.912368 (sec) -------------
TotEng   =     288.303298 KinEng   =      91.098494 Temp     =     252.575677 
PotEng   =     197.204804 E_bond   =      20.876534 E_angle  =      51.737901 
E_dihed  =      41.844662 E_impro  =       4.256395 E_vdwl   =      87.631129 
E_coul   =       2.208866 E_long   =     -11.350683 Press    =      32.203816
------------ Step           9500 ----- CPU =    0.9222949 (sec) -------------
TotEng   =     293.071908 KinEng   =      93.089790 Temp     =     258.096657 
PotEng   =     199.982118 E_bond   =      24.639120 E_angle  =      57.679559 
E_dihed  =      44.069496 E_impro  =       2.975070 E_vdwl   =      79.793630 
E_coul   =       2.172588 E_long   =     -11.347345 Press    =      29.898976
------------ Step           9600 ----- CPU =    0.9321021 (sec) -------------
TotEng   =     299.443346 KinEng   =     103.528841 Temp     =     287.039509 
PotEng   =     195.914506 E_bond   =      31.889255 E_angle  =      61.416111 
E_dihed  =      43.641180 E_impro  =       3.540159 E_vdwl   =      63.923056 
E_coul   =       2.852603 E_long   =     -11.347858 Press    =     -44.829751
------------ Step           9700 ----- CPU =    0.9418251 (sec) -------------
TotEng   =     305.535664 KinEng   =     104.847171 Temp     =     290.694653 
PotEng   =     200.688493 E_bond   =      30.752773 E_angle  =      59.405841 
E_dihed  =      43.043685 E_impro  =       2.956967 E_vdwl   =      73.284808 
E_coul   =       2.594204 E_long   =     -11.349785 Press    =     -30.879389
------------ Step           9800 ----- CPU =    0.9513105 (sec) -------------
TotEng   =     310.913730 KinEng   =     117.550699 Temp     =     325.915896 
PotEng   =     193.363032 E_bond   =      25.075809 E_angle  =      45.658831 
E_dihed  =      41.577902 E_impro  =       3.043583 E_vdwl   =      86.426618 
E_coul   =       2.927844 E_long   =     -11.347557 Press    =      64.036754
------------ Step           9900 ----- CPU =    0.9606721 (sec) -------------
TotEng   =     312.308647 KinEng   =     105.976171 Temp     =     293.824869 
PotEng   =     206.332476 E_bond   =      46.438003 E_angle  =      69.825895 
E_dihed  =      32.899482 E_impro  =       2.904086 E_vdwl   =      63.058333 
E_coul   =       2.554969 E_long   =     -11.348291 Press    =     -76.131924
------------ Step          10000 ----- CPU =    0.9701716 (sec) -------------
TotEng   =     313.426887 KinEng   =     107.802411 Temp     =     298.888221 
PotEng   =     205.624477 E_bond   =      41.176728 E_angle  =      55.929619 
E_dihed  =      38.420483 E_impro  =       2.809584 E_vdwl   =      76.127238 
E_coul   =       2.508341 E_long   =     -11.347516 Press    =     -48.193678
Loop time of 0.970197 on 8 procs for 10000 steps with 122 atoms

Performance: 445.270 ns/day, 0.054 hours/ns, 10307.181 timesteps/s, 1.257 Matom-step/s
99.5% CPU use with 8 MPI tasks x 1 OpenMP threads

MPI task timing breakdown:
Section |  min time  |  avg time  |  max time  |%varavg| %total
---------------------------------------------------------------
Pair    | 0.0026206  | 0.045586   | 0.11171    |  18.0 |  4.70
Bond    | 0.00064974 | 0.038278   | 0.071575   |  15.1 |  3.95
Kspace  | 0.5941     | 0.64634    | 0.69472    |   4.8 | 66.62
Neigh   | 0.008671   | 0.0089888  | 0.0092343  |   0.2 |  0.93
Comm    | 0.13841    | 0.17001    | 0.20959    |   6.1 | 17.52
Output  | 0.003573   | 0.0036644  | 0.0041655  |   0.3 |  0.38
Modify  | 0.019452   | 0.045206   | 0.1091     |  14.3 |  4.66
Other   |            | 0.01212    |            |       |  1.25

Nlocal:          15.25 ave          29 max           0 min
Histogram: 2 1 0 0 0 1 0 1 1 2
Nghost:          92.75 ave         118 max          65 min
Histogram: 2 0 0 0 0 3 1 1 0 1
Neighs:        375.875 ave         940 max           0 min
Histogram: 3 0 1 0 0 2 0 0 1 1

Total # of neighbors = 3007
Ave neighs/atom = 24.647541
Ave special neighs/atom = 5.7540984
Neighbor list builds = 112
Dangerous builds = 0
unfix                4
undump               1

print                .
.
print                ================================================
================================================
print                "NPT dynamics with an isotropic pressure of 1atm."
NPT dynamics with an isotropic pressure of 1atm.
print                ================================================
================================================
print                .
.

fix                  2 all nvt temp ${rtemp} ${rtemp} 100.0
fix                  2 all nvt temp 298 ${rtemp} 100.0
fix                  2 all nvt temp 298 298 100.0
thermo               100
dump                 1 all custom 100 ${sname}.npt.lammpstrj id type xu yu zu vx vy vz
dump                 1 all custom 100 oleic_xligand.test.npt.lammpstrj id type xu yu zu vx vy vz
run                  500000 # run for 15 ns
PPPM initialization ...
  using 12-bit tables for long-range coulomb (src/kspace.cpp:342)
  G vector (1/distance) = 0.063991812
  grid = 3 3 3
  stencil order = 5
  estimated absolute RMS force accuracy = 0.036397473
  estimated relative force accuracy = 0.00010960991
  using double precision FFTW3
  3d grid and FFT values/proc = 343 8
Generated 28 of 28 mixed pair_coeff terms from geometric mixing rule
Per MPI rank memory allocation (min/avg/max) = 14.86 | 16.07 | 16.64 Mbytes
------------ Step          10000 ----- CPU =            0 (sec) -------------
TotEng   =     313.426887 KinEng   =     107.802411 Temp     =     298.888221 
PotEng   =     205.624477 E_bond   =      41.176728 E_angle  =      55.929619 
E_dihed  =      38.420483 E_impro  =       2.809584 E_vdwl   =      76.127238 
E_coul   =       2.508341 E_long   =     -11.347516 Press    =     -48.193678
------------ Step          10100 ----- CPU =  0.009410562 (sec) -------------
TotEng   =     314.130077 KinEng   =      97.182959 Temp     =     269.445196 
PotEng   =     216.947119 E_bond   =      18.830980 E_angle  =      67.140191 
E_dihed  =      42.587303 E_impro  =       3.168365 E_vdwl   =      93.888363 
E_coul   =       2.681484 E_long   =     -11.349568 Press    =      96.354013
------------ Step          10200 ----- CPU =   0.01895534 (sec) -------------
TotEng   =     315.405229 KinEng   =     101.606732 Temp     =     281.710354 
PotEng   =     213.798498 E_bond   =      30.401399 E_angle  =      58.102214 
E_dihed  =      44.350599 E_impro  =       2.114627 E_vdwl   =      87.344597 
E_coul   =       2.827999 E_long   =     -11.342937 Press    =       9.854386
------------ Step          10300 ----- CPU =   0.02852191 (sec) -------------
TotEng   =     319.963180 KinEng   =     109.648108 Temp     =     304.005519 
PotEng   =     210.315073 E_bond   =      41.176328 E_angle  =      63.630861 
E_dihed  =      37.393147 E_impro  =       1.997118 E_vdwl   =      74.818551 
E_coul   =       2.644606 E_long   =     -11.345537 Press    =     -31.472729
------------ Step          10400 ----- CPU =    0.0381601 (sec) -------------
TotEng   =     328.158089 KinEng   =     108.954872 Temp     =     302.083485 
PotEng   =     219.203217 E_bond   =      45.022245 E_angle  =      69.339387 
E_dihed  =      38.440099 E_impro  =       2.946205 E_vdwl   =      71.598507 
E_coul   =       3.199008 E_long   =     -11.342234 Press    =     -42.958684
------------ Step          10500 ----- CPU =   0.04783095 (sec) -------------
TotEng   =     337.806312 KinEng   =     112.802122 Temp     =     312.750202 
PotEng   =     225.004189 E_bond   =      39.876343 E_angle  =      77.748253 
E_dihed  =      39.106763 E_impro  =       5.036457 E_vdwl   =      71.766941 
E_coul   =       2.816807 E_long   =     -11.347375 Press    =     -16.372785
------------ Step          10600 ----- CPU =   0.05751278 (sec) -------------
TotEng   =     342.893785 KinEng   =     139.155330 Temp     =     385.815947 
PotEng   =     203.738455 E_bond   =      32.197251 E_angle  =      66.682851 
E_dihed  =      28.369312 E_impro  =       1.594933 E_vdwl   =      83.286679 
E_coul   =       2.954641 E_long   =     -11.347212 Press    =      36.223017
------------ Step          10700 ----- CPU =   0.06731795 (sec) -------------
TotEng   =     338.047882 KinEng   =     125.319482 Temp     =     347.455283 
PotEng   =     212.728400 E_bond   =      34.744921 E_angle  =      57.547999 
E_dihed  =      40.814728 E_impro  =       6.096244 E_vdwl   =      82.360607 
E_coul   =       2.516391 E_long   =     -11.352491 Press    =      19.271022
------------ Step          10800 ----- CPU =   0.07699192 (sec) -------------
TotEng   =     324.580373 KinEng   =     111.404736 Temp     =     308.875871 
PotEng   =     213.175636 E_bond   =      40.592516 E_angle  =      58.817567 
E_dihed  =      42.837888 E_impro  =       2.820876 E_vdwl   =      76.329597 
E_coul   =       3.128339 E_long   =     -11.351147 Press    =     -43.293484
------------ Step          10900 ----- CPU =   0.08692696 (sec) -------------
TotEng   =     316.646943 KinEng   =     104.631794 Temp     =     290.097510 
PotEng   =     212.015149 E_bond   =      22.540608 E_angle  =      73.094003 
E_dihed  =      42.025355 E_impro  =       2.832476 E_vdwl   =      79.822756 
E_coul   =       3.052101 E_long   =     -11.352151 Press    =      54.626087
------------ Step          11000 ----- CPU =   0.09673345 (sec) -------------
TotEng   =     313.916351 KinEng   =     108.992508 Temp     =     302.187834 
PotEng   =     204.923843 E_bond   =      47.594842 E_angle  =      53.553894 
E_dihed  =      37.049187 E_impro  =       2.954710 E_vdwl   =      71.885163 
E_coul   =       3.239486 E_long   =     -11.353440 Press    =     -58.565729
------------ Step          11100 ----- CPU =    0.1065672 (sec) -------------
TotEng   =     312.861157 KinEng   =     100.484394 Temp     =     278.598610 
PotEng   =     212.376763 E_bond   =      35.208066 E_angle  =      59.967508 
E_dihed  =      38.971323 E_impro  =       4.769936 E_vdwl   =      82.709052 
E_coul   =       2.102797 E_long   =     -11.351919 Press    =      -1.655119
------------ Step          11200 ----- CPU =    0.1164783 (sec) -------------
TotEng   =     314.255331 KinEng   =      98.710942 Temp     =     273.681614 
PotEng   =     215.544389 E_bond   =      35.546880 E_angle  =      64.858604 
E_dihed  =      34.346881 E_impro  =       3.051849 E_vdwl   =      86.702929 
E_coul   =       2.390082 E_long   =     -11.352836 Press    =      29.712414
------------ Step          11300 ----- CPU =    0.1265435 (sec) -------------
TotEng   =     319.006710 KinEng   =      96.019573 Temp     =     266.219643 
PotEng   =     222.987137 E_bond   =      41.916738 E_angle  =      71.504594 
E_dihed  =      36.111204 E_impro  =       4.099891 E_vdwl   =      78.069549 
E_coul   =       2.637994 E_long   =     -11.352833 Press    =     -16.078797
------------ Step          11400 ----- CPU =    0.1364583 (sec) -------------
TotEng   =     325.999989 KinEng   =      99.136135 Temp     =     274.860487 
PotEng   =     226.863854 E_bond   =      41.420873 E_angle  =      83.150314 
E_dihed  =      33.746907 E_impro  =       4.159386 E_vdwl   =      74.038543 
E_coul   =       1.697367 E_long   =     -11.349537 Press    =     -47.548384
------------ Step          11500 ----- CPU =    0.1463529 (sec) -------------
TotEng   =     333.929199 KinEng   =     118.611408 Temp     =     328.856773 
PotEng   =     215.317791 E_bond   =      39.690386 E_angle  =      72.932204 
E_dihed  =      37.459307 E_impro  =       3.624729 E_vdwl   =      70.145737 
E_coul   =       2.814079 E_long   =     -11.348652 Press    =     -23.106056
------------ Step          11600 ----- CPU =    0.1563902 (sec) -------------
TotEng   =     335.318086 KinEng   =     117.848036 Temp     =     326.740281 
PotEng   =     217.470050 E_bond   =      31.956769 E_angle  =      66.713978 
E_dihed  =      30.830406 E_impro  =       4.820176 E_vdwl   =      91.435164 
E_coul   =       3.061209 E_long   =     -11.347653 Press    =      63.177137
------------ Step          11700 ----- CPU =     0.166433 (sec) -------------
TotEng   =     327.793400 KinEng   =     115.766255 Temp     =     320.968427 
PotEng   =     212.027145 E_bond   =      31.409103 E_angle  =      67.732179 
E_dihed  =      38.439282 E_impro  =       3.720795 E_vdwl   =      79.619296 
E_coul   =       2.453431 E_long   =     -11.346941 Press    =      14.551815
------------ Step          11800 ----- CPU =    0.1764627 (sec) -------------
TotEng   =     320.173749 KinEng   =     118.559760 Temp     =     328.713576 
PotEng   =     201.613989 E_bond   =      40.351462 E_angle  =      49.918922 
E_dihed  =      35.260523 E_impro  =       2.696445 E_vdwl   =      81.368269 
E_coul   =       3.366355 E_long   =     -11.347987 Press    =     -16.872047
------------ Step          11900 ----- CPU =    0.1865934 (sec) -------------
TotEng   =     314.985684 KinEng   =     106.281370 Temp     =     294.671050 
PotEng   =     208.704314 E_bond   =      34.543028 E_angle  =      55.783283 
E_dihed  =      37.448630 E_impro  =       3.044525 E_vdwl   =      86.366459 
E_coul   =       2.865579 E_long   =     -11.347191 Press    =      62.340235
------------ Step          12000 ----- CPU =    0.1966525 (sec) -------------
TotEng   =     314.815269 KinEng   =     107.830426 Temp     =     298.965896 
PotEng   =     206.984843 E_bond   =      31.089901 E_angle  =      55.774175 
E_dihed  =      41.625300 E_impro  =       3.740587 E_vdwl   =      84.006920 
E_coul   =       2.095765 E_long   =     -11.347805 Press    =      14.875688
------------ Step          12100 ----- CPU =    0.2066714 (sec) -------------
TotEng   =     318.622917 KinEng   =     114.746598 Temp     =     318.141369 
PotEng   =     203.876319 E_bond   =      46.874250 E_angle  =      52.741999 
E_dihed  =      35.058641 E_impro  =       2.469940 E_vdwl   =      75.513074 
E_coul   =       2.566911 E_long   =     -11.348495 Press    =     -22.632935
------------ Step          12200 ----- CPU =    0.2167761 (sec) -------------
TotEng   =     322.160807 KinEng   =      93.185998 Temp     =     258.363398 
PotEng   =     228.974809 E_bond   =      55.202058 E_angle  =      75.680683 
E_dihed  =      25.066192 E_impro  =       2.496992 E_vdwl   =      79.199510 
E_coul   =       2.680186 E_long   =     -11.350813 Press    =     -49.685897
------------ Step          12300 ----- CPU =    0.2268988 (sec) -------------
TotEng   =     326.169422 KinEng   =     109.436203 Temp     =     303.418003 
PotEng   =     216.733219 E_bond   =      38.348112 E_angle  =      71.860284 
E_dihed  =      32.247162 E_impro  =       2.663347 E_vdwl   =      81.091332 
E_coul   =       1.873472 E_long   =     -11.350490 Press    =      10.936494
------------ Step          12400 ----- CPU =      0.23692 (sec) -------------
TotEng   =     328.894220 KinEng   =     110.433093 Temp     =     306.181936 
PotEng   =     218.461126 E_bond   =      38.882594 E_angle  =      64.315826 
E_dihed  =      37.121558 E_impro  =       3.562900 E_vdwl   =      83.817874 
E_coul   =       2.112002 E_long   =     -11.351629 Press    =     -18.958094
------------ Step          12500 ----- CPU =    0.2469869 (sec) -------------
TotEng   =     331.887496 KinEng   =     115.120352 Temp     =     319.177624 
PotEng   =     216.767144 E_bond   =      40.542081 E_angle  =      60.766014 
E_dihed  =      33.303737 E_impro  =       2.849175 E_vdwl   =      88.631280 
E_coul   =       2.022885 E_long   =     -11.348027 Press    =      27.691004
------------ Step          12600 ----- CPU =    0.2572017 (sec) -------------
TotEng   =     333.193693 KinEng   =     118.625562 Temp     =     328.896014 
PotEng   =     214.568131 E_bond   =      49.919600 E_angle  =      60.183449 
E_dihed  =      32.777771 E_impro  =       3.555482 E_vdwl   =      77.358601 
E_coul   =       2.122709 E_long   =     -11.349481 Press    =     -56.275171
------------ Step          12700 ----- CPU =    0.2674577 (sec) -------------
TotEng   =     326.720921 KinEng   =     122.243307 Temp     =     338.926416 
PotEng   =     204.477613 E_bond   =      36.539915 E_angle  =      56.733597 
E_dihed  =      35.218043 E_impro  =       3.720861 E_vdwl   =      82.113252 
E_coul   =       1.498479 E_long   =     -11.346534 Press    =      55.380302
------------ Step          12800 ----- CPU =    0.2777893 (sec) -------------
TotEng   =     313.971667 KinEng   =      98.463372 Temp     =     272.995213 
PotEng   =     215.508295 E_bond   =      33.780073 E_angle  =      68.749008 
E_dihed  =      38.433853 E_impro  =       3.037179 E_vdwl   =      80.357380 
E_coul   =       2.496170 E_long   =     -11.345366 Press    =      21.827499
------------ Step          12900 ----- CPU =    0.2879897 (sec) -------------
TotEng   =     306.728761 KinEng   =     115.318232 Temp     =     319.726257 
PotEng   =     191.410529 E_bond   =      44.484903 E_angle  =      53.338617 
E_dihed  =      35.089367 E_impro  =       3.372171 E_vdwl   =      64.347082 
E_coul   =       2.126320 E_long   =     -11.347931 Press    =     -50.558935
------------ Step          13000 ----- CPU =    0.2981835 (sec) -------------
TotEng   =     303.014268 KinEng   =     101.049057 Temp     =     280.164169 
PotEng   =     201.965212 E_bond   =      37.888988 E_angle  =      66.334842 
E_dihed  =      38.520734 E_impro  =       2.950502 E_vdwl   =      65.651023 
E_coul   =       1.966997 E_long   =     -11.347874 Press    =     -43.159365
------------ Step          13100 ----- CPU =    0.3083777 (sec) -------------
TotEng   =     304.629823 KinEng   =     102.347512 Temp     =     283.764209 
PotEng   =     202.282311 E_bond   =      37.277473 E_angle  =      46.899288 
E_dihed  =      40.076886 E_impro  =       3.601359 E_vdwl   =      83.357772 
E_coul   =       2.416146 E_long   =     -11.346614 Press    =      42.580058
------------ Step          13200 ----- CPU =    0.3187341 (sec) -------------
TotEng   =     310.477091 KinEng   =     107.407841 Temp     =     297.794254 
PotEng   =     203.069250 E_bond   =      34.006804 E_angle  =      58.574334 
E_dihed  =      38.382824 E_impro  =       3.661047 E_vdwl   =      77.690071 
E_coul   =       2.102430 E_long   =     -11.348260 Press    =       4.679827
------------ Step          13300 ----- CPU =    0.3290793 (sec) -------------
TotEng   =     318.537298 KinEng   =     114.442127 Temp     =     317.297206 
PotEng   =     204.095171 E_bond   =      39.831212 E_angle  =      62.168273 
E_dihed  =      32.187589 E_impro  =       3.042094 E_vdwl   =      76.063339 
E_coul   =       2.154003 E_long   =     -11.351339 Press    =     -40.708603
------------ Step          13400 ----- CPU =    0.3394848 (sec) -------------
TotEng   =     323.231932 KinEng   =     107.478111 Temp     =     297.989083 
PotEng   =     215.753821 E_bond   =      36.818090 E_angle  =      58.949823 
E_dihed  =      38.775334 E_impro  =       4.652719 E_vdwl   =      85.330997 
E_coul   =       2.578044 E_long   =     -11.351187 Press    =      20.396999
------------ Step          13500 ----- CPU =    0.3497982 (sec) -------------
TotEng   =     325.287253 KinEng   =     106.773501 Temp     =     296.035510 
PotEng   =     218.513753 E_bond   =      39.012200 E_angle  =      65.091705 
E_dihed  =      48.101173 E_impro  =       2.424749 E_vdwl   =      73.096889 
E_coul   =       2.136509 E_long   =     -11.349472 Press    =      -6.654859
------------ Step          13600 ----- CPU =    0.3601247 (sec) -------------
TotEng   =     327.990062 KinEng   =     107.028661 Temp     =     296.742956 
PotEng   =     220.961402 E_bond   =      44.645344 E_angle  =      63.302305 
E_dihed  =      43.074606 E_impro  =       3.471348 E_vdwl   =      75.405620 
E_coul   =       2.413046 E_long   =     -11.350867 Press    =     -31.936414
------------ Step          13700 ----- CPU =    0.3703209 (sec) -------------
TotEng   =     328.315118 KinEng   =      98.497020 Temp     =     273.088506 
PotEng   =     229.818098 E_bond   =      47.794186 E_angle  =      64.852222 
E_dihed  =      34.106316 E_impro  =       3.609972 E_vdwl   =      88.895341 
E_coul   =       1.908170 E_long   =     -11.348110 Press    =       4.679460
------------ Step          13800 ----- CPU =    0.3806742 (sec) -------------
TotEng   =     328.014734 KinEng   =     104.049298 Temp     =     288.482507 
PotEng   =     223.965436 E_bond   =      42.715369 E_angle  =      64.540276 
E_dihed  =      38.030391 E_impro  =       5.842178 E_vdwl   =      82.540653 
E_coul   =       1.647156 E_long   =     -11.350585 Press    =      50.317703
------------ Step          13900 ----- CPU =    0.3911632 (sec) -------------
TotEng   =     326.349294 KinEng   =     114.794263 Temp     =     318.273523 
PotEng   =     211.555032 E_bond   =      43.453275 E_angle  =      60.818618 
E_dihed  =      38.806097 E_impro  =       4.674048 E_vdwl   =      73.265857 
E_coul   =       1.884015 E_long   =     -11.346879 Press    =     -45.125049
------------ Step          14000 ----- CPU =    0.4014643 (sec) -------------
TotEng   =     324.435545 KinEng   =     104.254450 Temp     =     289.051301 
PotEng   =     220.181095 E_bond   =      44.586836 E_angle  =      65.558691 
E_dihed  =      34.166302 E_impro  =       5.200343 E_vdwl   =      80.207551 
E_coul   =       1.810780 E_long   =     -11.349407 Press    =      32.689191
------------ Step          14100 ----- CPU =     0.412025 (sec) -------------
TotEng   =     322.415329 KinEng   =     105.210460 Temp     =     291.701892 
PotEng   =     217.204869 E_bond   =      45.262642 E_angle  =      60.506246 
E_dihed  =      38.863925 E_impro  =       3.788018 E_vdwl   =      76.656099 
E_coul   =       3.478772 E_long   =     -11.350833 Press    =     -15.764327
------------ Step          14200 ----- CPU =    0.4226183 (sec) -------------
TotEng   =     319.765691 KinEng   =     112.121736 Temp     =     310.863794 
PotEng   =     207.643955 E_bond   =      45.497237 E_angle  =      64.582732 
E_dihed  =      33.194523 E_impro  =       2.663019 E_vdwl   =      70.439095 
E_coul   =       2.616966 E_long   =     -11.349617 Press    =      -3.110902
------------ Step          14300 ----- CPU =    0.4329538 (sec) -------------
TotEng   =     315.635610 KinEng   =     118.171738 Temp     =     327.637762 
PotEng   =     197.463872 E_bond   =      38.988116 E_angle  =      57.460808 
E_dihed  =      35.360121 E_impro  =       3.550159 E_vdwl   =      70.406420 
E_coul   =       3.048233 E_long   =     -11.349985 Press    =     -28.821242
------------ Step          14400 ----- CPU =    0.4434329 (sec) -------------
TotEng   =     311.051567 KinEng   =     106.506307 Temp     =     295.294702 
PotEng   =     204.545259 E_bond   =      39.125736 E_angle  =      59.464521 
E_dihed  =      34.403911 E_impro  =       1.315893 E_vdwl   =      78.456286 
E_coul   =       3.131901 E_long   =     -11.352988 Press    =      19.994547
------------ Step          14500 ----- CPU =    0.4538433 (sec) -------------
TotEng   =     307.512242 KinEng   =     105.212027 Temp     =     291.706238 
PotEng   =     202.300215 E_bond   =      34.519455 E_angle  =      63.775059 
E_dihed  =      28.487922 E_impro  =       3.633945 E_vdwl   =      80.288339 
E_coul   =       2.947553 E_long   =     -11.352058 Press    =      21.050410
------------ Step          14600 ----- CPU =    0.4644085 (sec) -------------
TotEng   =     304.854027 KinEng   =     101.807118 Temp     =     282.265938 
PotEng   =     203.046909 E_bond   =      44.511349 E_angle  =      57.354795 
E_dihed  =      31.031251 E_impro  =       4.792991 E_vdwl   =      74.527239 
E_coul   =       2.178531 E_long   =     -11.349248 Press    =     -27.755047
------------ Step          14700 ----- CPU =    0.4749896 (sec) -------------
TotEng   =     306.003156 KinEng   =      89.979032 Temp     =     249.471905 
PotEng   =     216.024124 E_bond   =      46.123141 E_angle  =      63.714187 
E_dihed  =      40.773048 E_impro  =       3.154414 E_vdwl   =      71.045926 
E_coul   =       2.562709 E_long   =     -11.349301 Press    =     -13.862957
------------ Step          14800 ----- CPU =    0.4872461 (sec) -------------
[...]
E_dihed  =      22.480416 E_impro  =       1.136338 E_vdwl   =      74.989741 
E_coul   =       2.800637 E_long   =     -11.350768 Press    =       2.457238
------------ Step         505400 ----- CPU =      47.7353 (sec) -------------
TotEng   =     317.122317 KinEng   =     104.605806 Temp     =     290.025456 
PotEng   =     212.516511 E_bond   =      53.967381 E_angle  =      61.898395 
E_dihed  =      29.231159 E_impro  =       1.870778 E_vdwl   =      74.055321 
E_coul   =       2.844490 E_long   =     -11.351011 Press    =      -2.460249
------------ Step         505500 ----- CPU =     47.74491 (sec) -------------
TotEng   =     318.511723 KinEng   =     108.253383 Temp     =     300.138566 
PotEng   =     210.258341 E_bond   =      45.557027 E_angle  =      71.901837 
E_dihed  =      25.288167 E_impro  =       2.331227 E_vdwl   =      74.181945 
E_coul   =       2.347994 E_long   =     -11.349857 Press    =      13.326306
------------ Step         505600 ----- CPU =      47.7545 (sec) -------------
TotEng   =     318.835071 KinEng   =     111.313300 Temp     =     308.622360 
PotEng   =     207.521771 E_bond   =      44.797793 E_angle  =      72.716367 
E_dihed  =      24.144285 E_impro  =       1.083037 E_vdwl   =      74.228522 
E_coul   =       1.903150 E_long   =     -11.351384 Press    =     -20.703704
------------ Step         505700 ----- CPU =     47.76413 (sec) -------------
TotEng   =     318.999367 KinEng   =     110.395218 Temp     =     306.076926 
PotEng   =     208.604148 E_bond   =      51.026878 E_angle  =      70.379989 
E_dihed  =      28.423552 E_impro  =       2.428962 E_vdwl   =      65.413810 
E_coul   =       2.283338 E_long   =     -11.352380 Press    =      25.229873
------------ Step         505800 ----- CPU =     47.77383 (sec) -------------
TotEng   =     316.159068 KinEng   =     104.107908 Temp     =     288.645007 
PotEng   =     212.051159 E_bond   =      48.795201 E_angle  =      69.782567 
E_dihed  =      31.037303 E_impro  =       2.154591 E_vdwl   =      69.714706 
E_coul   =       1.917691 E_long   =     -11.350899 Press    =     -59.719302
------------ Step         505900 ----- CPU =     47.78349 (sec) -------------
TotEng   =     310.795136 KinEng   =     102.636328 Temp     =     284.564968 
PotEng   =     208.158808 E_bond   =      51.768748 E_angle  =      57.752392 
E_dihed  =      29.150444 E_impro  =       2.101788 E_vdwl   =      76.341698 
E_coul   =       2.396365 E_long   =     -11.352627 Press    =      22.525771
------------ Step         506000 ----- CPU =      47.7931 (sec) -------------
TotEng   =     305.750959 KinEng   =     102.653630 Temp     =     284.612939 
PotEng   =     203.097328 E_bond   =      42.627164 E_angle  =      61.520978 
E_dihed  =      33.852030 E_impro  =       2.212463 E_vdwl   =      71.776034 
E_coul   =       2.462127 E_long   =     -11.353467 Press    =     -13.687893
------------ Step         506100 ----- CPU =     47.80263 (sec) -------------
TotEng   =     303.672008 KinEng   =      99.765959 Temp     =     276.606708 
PotEng   =     203.906050 E_bond   =      47.478168 E_angle  =      65.515807 
E_dihed  =      32.309767 E_impro  =       1.915192 E_vdwl   =      65.686843 
E_coul   =       2.351892 E_long   =     -11.351619 Press    =     -37.362918
------------ Step         506200 ----- CPU =     47.81253 (sec) -------------
TotEng   =     304.970962 KinEng   =      99.204749 Temp     =     275.050723 
PotEng   =     205.766213 E_bond   =      42.598263 E_angle  =      65.719697 
E_dihed  =      30.221676 E_impro  =       2.687112 E_vdwl   =      73.683100 
E_coul   =       2.206347 E_long   =     -11.349982 Press    =      44.662357
------------ Step         506300 ----- CPU =      47.8224 (sec) -------------
TotEng   =     311.011097 KinEng   =      95.333579 Temp     =     264.317688 
PotEng   =     215.677517 E_bond   =      48.214171 E_angle  =      62.363767 
E_dihed  =      25.857363 E_impro  =       3.670438 E_vdwl   =      84.824272 
E_coul   =       2.099959 E_long   =     -11.352453 Press    =      -9.813075
------------ Step         506400 ----- CPU =     47.83232 (sec) -------------
TotEng   =     318.493390 KinEng   =     110.935731 Temp     =     307.575528 
PotEng   =     207.557659 E_bond   =      45.903869 E_angle  =      69.648883 
E_dihed  =      28.832753 E_impro  =       2.556928 E_vdwl   =      69.989636 
E_coul   =       1.977137 E_long   =     -11.351546 Press    =     -13.208181
------------ Step         506500 ----- CPU =     47.84219 (sec) -------------
TotEng   =     324.572662 KinEng   =     123.985128 Temp     =     343.755710 
PotEng   =     200.587534 E_bond   =      45.480096 E_angle  =      60.261319 
E_dihed  =      29.060839 E_impro  =       2.640136 E_vdwl   =      72.549518 
E_coul   =       1.945759 E_long   =     -11.350133 Press    =      23.887787
------------ Step         506600 ----- CPU =     47.85203 (sec) -------------
TotEng   =     327.491890 KinEng   =     116.397191 Temp     =     322.717732 
PotEng   =     211.094699 E_bond   =      50.760097 E_angle  =      66.853881 
E_dihed  =      27.123670 E_impro  =       2.898526 E_vdwl   =      73.128779 
E_coul   =       1.681323 E_long   =     -11.351577 Press    =      22.138196
------------ Step         506700 ----- CPU =     47.86189 (sec) -------------
TotEng   =     327.249644 KinEng   =     112.504787 Temp     =     311.925823 
PotEng   =     214.744857 E_bond   =      51.345188 E_angle  =      64.402328 
E_dihed  =      31.009258 E_impro  =       2.656827 E_vdwl   =      74.132433 
E_coul   =       2.551295 E_long   =     -11.352472 Press    =     -19.146388
------------ Step         506800 ----- CPU =     47.87178 (sec) -------------
TotEng   =     323.346102 KinEng   =     103.613823 Temp     =     287.275128 
PotEng   =     219.732279 E_bond   =      48.726943 E_angle  =      65.817099 
E_dihed  =      30.144677 E_impro  =       4.099659 E_vdwl   =      80.492479 
E_coul   =       1.803199 E_long   =     -11.351776 Press    =       1.742824
------------ Step         506900 ----- CPU =     47.88154 (sec) -------------
TotEng   =     316.159848 KinEng   =     111.139698 Temp     =     308.141037 
PotEng   =     205.020150 E_bond   =      52.603220 E_angle  =      61.357812 
E_dihed  =      25.341433 E_impro  =       3.524064 E_vdwl   =      71.800401 
E_coul   =       1.744020 E_long   =     -11.350801 Press    =      -9.335401
------------ Step         507000 ----- CPU =     47.89144 (sec) -------------
TotEng   =     305.795763 KinEng   =      88.347422 Temp     =     244.948177 
PotEng   =     217.448341 E_bond   =      50.637063 E_angle  =      70.316689 
E_dihed  =      22.612398 E_impro  =       2.235976 E_vdwl   =      80.632238 
E_coul   =       2.364718 E_long   =     -11.350740 Press    =      31.582403
------------ Step         507100 ----- CPU =     47.90134 (sec) -------------
TotEng   =     297.972520 KinEng   =      85.696242 Temp     =     237.597631 
PotEng   =     212.276278 E_bond   =      46.255622 E_angle  =      67.605690 
E_dihed  =      27.206071 E_impro  =       1.951476 E_vdwl   =      78.314817 
E_coul   =       2.291959 E_long   =     -11.349359 Press    =      13.953078
------------ Step         507200 ----- CPU =     47.91136 (sec) -------------
TotEng   =     296.510035 KinEng   =     104.992752 Temp     =     291.098286 
PotEng   =     191.517283 E_bond   =      43.465457 E_angle  =      51.296813 
E_dihed  =      25.324511 E_impro  =       2.481427 E_vdwl   =      78.310260 
E_coul   =       1.988987 E_long   =     -11.350172 Press    =      17.317439
------------ Step         507300 ----- CPU =     47.92125 (sec) -------------
TotEng   =     298.770874 KinEng   =      95.483371 Temp     =     264.732995 
PotEng   =     203.287503 E_bond   =      48.566447 E_angle  =      63.563823 
E_dihed  =      24.912521 E_impro  =       1.694784 E_vdwl   =      73.771923 
E_coul   =       2.128358 E_long   =     -11.350353 Press    =      10.902520
------------ Step         507400 ----- CPU =     47.93099 (sec) -------------
TotEng   =     304.431948 KinEng   =      94.213329 Temp     =     261.211732 
PotEng   =     210.218618 E_bond   =      51.147323 E_angle  =      65.078061 
E_dihed  =      29.026461 E_impro  =       2.865195 E_vdwl   =      71.130159 
E_coul   =       2.320448 E_long   =     -11.349028 Press    =      -5.576492
------------ Step         507500 ----- CPU =     47.94092 (sec) -------------
TotEng   =     309.308062 KinEng   =     100.062443 Temp     =     277.428728 
PotEng   =     209.245619 E_bond   =      45.727165 E_angle  =      64.653855 
E_dihed  =      32.411921 E_impro  =       2.808907 E_vdwl   =      72.374026 
E_coul   =       2.620250 E_long   =     -11.350505 Press    =      18.794252
------------ Step         507600 ----- CPU =      47.9506 (sec) -------------
TotEng   =     312.140872 KinEng   =     101.866078 Temp     =     282.429406 
PotEng   =     210.274794 E_bond   =      44.836014 E_angle  =      65.846808 
E_dihed  =      28.944546 E_impro  =       2.200065 E_vdwl   =      77.445576 
E_coul   =       2.352203 E_long   =     -11.350418 Press    =      27.037561
------------ Step         507700 ----- CPU =     47.96025 (sec) -------------
TotEng   =     314.577912 KinEng   =     109.145772 Temp     =     302.612765 
PotEng   =     205.432141 E_bond   =      50.887665 E_angle  =      65.921599 
E_dihed  =      31.802048 E_impro  =       2.577244 E_vdwl   =      63.131473 
E_coul   =       2.462027 E_long   =     -11.349914 Press    =     -59.063266
------------ Step         507800 ----- CPU =     47.96982 (sec) -------------
TotEng   =     317.183975 KinEng   =     118.463721 Temp     =     328.447301 
PotEng   =     198.720254 E_bond   =      44.337769 E_angle  =      61.769201 
E_dihed  =      26.019935 E_impro  =       3.477499 E_vdwl   =      72.686495 
E_coul   =       1.778967 E_long   =     -11.349612 Press    =      38.898874
------------ Step         507900 ----- CPU =      47.9795 (sec) -------------
TotEng   =     319.861152 KinEng   =     112.619323 Temp     =     312.243380 
PotEng   =     207.241829 E_bond   =      45.237768 E_angle  =      75.310085 
E_dihed  =      19.759650 E_impro  =       2.915701 E_vdwl   =      73.230236 
E_coul   =       2.138411 E_long   =     -11.350023 Press    =     -16.158416
------------ Step         508000 ----- CPU =     47.98936 (sec) -------------
TotEng   =     320.643195 KinEng   =     115.618400 Temp     =     320.558490 
PotEng   =     205.024795 E_bond   =      52.588607 E_angle  =      64.419650 
E_dihed  =      26.939234 E_impro  =       3.055875 E_vdwl   =      67.074232 
E_coul   =       2.297778 E_long   =     -11.350581 Press    =     -51.987292
------------ Step         508100 ----- CPU =     47.99917 (sec) -------------
TotEng   =     320.237569 KinEng   =     112.018599 Temp     =     310.577840 
PotEng   =     208.218970 E_bond   =      46.218833 E_angle  =      60.461907 
E_dihed  =      34.772658 E_impro  =       1.621335 E_vdwl   =      74.478268 
E_coul   =       2.016629 E_long   =     -11.350661 Press    =      -6.584319
------------ Step         508200 ----- CPU =     48.00887 (sec) -------------
TotEng   =     319.951556 KinEng   =     117.927694 Temp     =     326.961137 
PotEng   =     202.023862 E_bond   =      32.009859 E_angle  =      61.632734 
E_dihed  =      30.200804 E_impro  =       2.427888 E_vdwl   =      85.188498 
E_coul   =       1.912396 E_long   =     -11.348317 Press    =      86.309617
------------ Step         508300 ----- CPU =     48.01864 (sec) -------------
TotEng   =     321.588221 KinEng   =     107.503304 Temp     =     298.058932 
PotEng   =     214.084917 E_bond   =      48.506434 E_angle  =      68.175833 
E_dihed  =      30.544728 E_impro  =       5.415942 E_vdwl   =      70.235633 
E_coul   =       2.555411 E_long   =     -11.349064 Press    =      -9.916369
------------ Step         508400 ----- CPU =     48.02843 (sec) -------------
TotEng   =     323.786996 KinEng   =     111.166472 Temp     =     308.215270 
PotEng   =     212.620524 E_bond   =      52.893876 E_angle  =      60.133771 
E_dihed  =      33.844077 E_impro  =       2.300624 E_vdwl   =      72.160419 
E_coul   =       2.637911 E_long   =     -11.350155 Press    =       6.764392
------------ Step         508500 ----- CPU =     48.03825 (sec) -------------
TotEng   =     324.857749 KinEng   =     103.266792 Temp     =     286.312965 
PotEng   =     221.590957 E_bond   =      38.974507 E_angle  =      67.712105 
E_dihed  =      31.909446 E_impro  =       2.128900 E_vdwl   =      89.677387 
E_coul   =       2.538744 E_long   =     -11.350132 Press    =      87.360214
------------ Step         508600 ----- CPU =     48.04809 (sec) -------------
TotEng   =     325.313135 KinEng   =     111.044931 Temp     =     307.878290 
PotEng   =     214.268204 E_bond   =      53.839334 E_angle  =      73.231488 
E_dihed  =      26.317233 E_impro  =       3.886069 E_vdwl   =      65.348699 
E_coul   =       2.993742 E_long   =     -11.348360 Press    =     -41.938006
------------ Step         508700 ----- CPU =     48.05795 (sec) -------------
TotEng   =     322.792365 KinEng   =     100.595188 Temp     =     278.905792 
PotEng   =     222.197177 E_bond   =      55.846894 E_angle  =      75.899341 
E_dihed  =      27.823133 E_impro  =       2.342834 E_vdwl   =      69.606136 
E_coul   =       2.028694 E_long   =     -11.349855 Press    =     -64.611896
------------ Step         508800 ----- CPU =     48.06785 (sec) -------------
TotEng   =     318.169350 KinEng   =     102.433807 Temp     =     284.003466 
PotEng   =     215.735543 E_bond   =      44.786294 E_angle  =      71.572341 
E_dihed  =      29.255351 E_impro  =       4.116314 E_vdwl   =      74.972888 
E_coul   =       2.383058 E_long   =     -11.350702 Press    =      28.790770
------------ Step         508900 ----- CPU =     48.07775 (sec) -------------
TotEng   =     312.305170 KinEng   =      94.427461 Temp     =     261.805423 
PotEng   =     217.877709 E_bond   =      46.333179 E_angle  =      73.653462 
E_dihed  =      32.637954 E_impro  =       2.362110 E_vdwl   =      71.820814 
E_coul   =       2.419114 E_long   =     -11.348923 Press    =     -10.628791
------------ Step         509000 ----- CPU =     48.08763 (sec) -------------
TotEng   =     308.833225 KinEng   =      87.257188 Temp     =     241.925441 
PotEng   =     221.576037 E_bond   =      45.681108 E_angle  =      71.631697 
E_dihed  =      36.656189 E_impro  =       2.564906 E_vdwl   =      73.776899 
E_coul   =       2.614199 E_long   =     -11.348961 Press    =       1.909360
------------ Step         509100 ----- CPU =     48.09749 (sec) -------------
TotEng   =     309.992980 KinEng   =     104.234694 Temp     =     288.996526 
PotEng   =     205.758286 E_bond   =      57.707168 E_angle  =      55.816148 
E_dihed  =      33.917474 E_impro  =       2.943703 E_vdwl   =      64.022991 
E_coul   =       2.699193 E_long   =     -11.348391 Press    =     -57.196821
------------ Step         509200 ----- CPU =     48.10728 (sec) -------------
TotEng   =     315.726788 KinEng   =     102.590292 Temp     =     284.437331 
PotEng   =     213.136495 E_bond   =      40.935266 E_angle  =      66.009094 
E_dihed  =      30.086656 E_impro  =       2.718745 E_vdwl   =      82.537953 
E_coul   =       2.197698 E_long   =     -11.348916 Press    =      74.958433
------------ Step         509300 ----- CPU =     48.11718 (sec) -------------
TotEng   =     326.998921 KinEng   =     108.071281 Temp     =     299.633679 
PotEng   =     218.927640 E_bond   =      45.391234 E_angle  =      70.391914 
E_dihed  =      28.255531 E_impro  =       3.753237 E_vdwl   =      80.027784 
E_coul   =       2.458122 E_long   =     -11.350181 Press    =      -3.701898
------------ Step         509400 ----- CPU =     48.12696 (sec) -------------
TotEng   =     334.769589 KinEng   =     108.056263 Temp     =     299.592040 
PotEng   =     226.713326 E_bond   =      52.857859 E_angle  =      76.094351 
E_dihed  =      36.566224 E_impro  =       3.987177 E_vdwl   =      66.703026 
E_coul   =       1.852863 E_long   =     -11.348175 Press    =     -18.284931
------------ Step         509500 ----- CPU =      48.1367 (sec) -------------
TotEng   =     337.901566 KinEng   =     113.366454 Temp     =     314.314844 
PotEng   =     224.535112 E_bond   =      47.798327 E_angle  =      71.550284 
E_dihed  =      33.713344 E_impro  =       2.911301 E_vdwl   =      77.869482 
E_coul   =       2.044215 E_long   =     -11.351842 Press    =       2.721352
------------ Step         509600 ----- CPU =     48.14636 (sec) -------------
TotEng   =     336.645032 KinEng   =     115.923201 Temp     =     321.403569 
PotEng   =     220.721830 E_bond   =      42.437153 E_angle  =      65.581094 
E_dihed  =      38.330779 E_impro  =       4.170153 E_vdwl   =      79.368406 
E_coul   =       2.186108 E_long   =     -11.351863 Press    =      89.833718
------------ Step         509700 ----- CPU =     48.15611 (sec) -------------
TotEng   =     333.349953 KinEng   =     106.223748 Temp     =     294.511292 
PotEng   =     227.126205 E_bond   =      54.977334 E_angle  =      67.086029 
E_dihed  =      41.704081 E_impro  =       4.419722 E_vdwl   =      68.350162 
E_coul   =       1.940240 E_long   =     -11.351363 Press    =     -69.434686
------------ Step         509800 ----- CPU =     48.16582 (sec) -------------
TotEng   =     328.671999 KinEng   =     120.170358 Temp     =     333.179047 
PotEng   =     208.501641 E_bond   =      46.147013 E_angle  =      57.386750 
E_dihed  =      35.327883 E_impro  =       3.707717 E_vdwl   =      75.066428 
E_coul   =       2.217936 E_long   =     -11.352086 Press    =      40.274824
------------ Step         509900 ----- CPU =     48.17559 (sec) -------------
TotEng   =     323.947783 KinEng   =     102.076020 Temp     =     283.011482 
PotEng   =     221.871763 E_bond   =      53.557535 E_angle  =      73.767602 
E_dihed  =      31.061918 E_impro  =       2.827746 E_vdwl   =      69.522765 
E_coul   =       2.485316 E_long   =     -11.351118 Press    =     -25.392775
------------ Step         510000 ----- CPU =     48.18542 (sec) -------------
TotEng   =     319.497244 KinEng   =     100.435257 Temp     =     278.462376 
PotEng   =     219.061987 E_bond   =      49.349987 E_angle  =      70.823126 
E_dihed  =      29.505222 E_impro  =       2.131105 E_vdwl   =      75.598108 
E_coul   =       3.000272 E_long   =     -11.345833 Press    =      20.455224
Loop time of 48.1854 on 8 procs for 500000 steps with 122 atoms

Performance: 448.268 ns/day, 0.054 hours/ns, 10376.576 timesteps/s, 1.266 Matom-step/s
99.6% CPU use with 8 MPI tasks x 1 OpenMP threads

MPI task timing breakdown:
Section |  min time  |  avg time  |  max time  |%varavg| %total
---------------------------------------------------------------
Pair    | 0.13063    | 2.3018     | 4.7471     | 112.4 |  4.78
Bond    | 0.032437   | 1.9294     | 3.3997     |  95.9 |  4.00
Kspace  | 29.655     | 31.819     | 34.313     |  29.7 | 66.04
Neigh   | 0.35735    | 0.3704     | 0.37993    |   1.4 |  0.77
Comm    | 6.6173     | 8.425      | 10.734     |  47.3 | 17.48
Output  | 0.58198    | 0.59095    | 0.64919    |   2.9 |  1.23
Modify  | 0.99188    | 2.1505     | 5.5512     | 106.0 |  4.46
Other   |            | 0.598      |            |       |  1.24

Nlocal:          15.25 ave          33 max           0 min
Histogram: 2 1 1 0 0 0 0 2 1 1
Nghost:          93.75 ave         118 max          68 min
Histogram: 2 0 0 0 1 2 1 0 0 2
Neighs:          390.5 ave         835 max           0 min
Histogram: 3 0 1 0 0 0 0 1 1 2

Total # of neighbors = 3124
Ave neighs/atom = 25.606557
Ave special neighs/atom = 5.7540984
Neighbor list builds = 4787
Dangerous builds = 0
unfix                2
undump               1

Total wall time: 0:00:49
