ITEM: TIMESTEP
0
ITEM: NUMBER OF ATOMS
122
ITEM: BOX BOUNDS pp pp pp
0.0000000000000000e+00 6.0000000000000000e+01
0.0000000000000000e+00 6.0000000000000000e+01
0.0000000000000000e+00 6.0000000000000000e+01
ITEM: ATOMS id type xu yu zu vx vy vz
13 3 29.6142 30.9649 47.4831 0 0 0
41 6 28.7437 30.7314 46.8881 0 0 0
1 1 23.5234 33.6561 53.9915 0 0 0
2 1 23.1577 32.3482 53.26 0 0 0
32 6 22.9698 34.4942 53.5682 0 0 0
34 6 22.7709 31.6144 53.9672 0 0 0
35 6 22.4245 32.5442 52.4776 0 0 0
3 1 24.4817 31.8506 52.6414 0 0 0
4 2 25.5417 32.4685 53.4792 0 0 0
5 3 26.7533 32.51 52.799 0 0 0
6 3 27.6459 33.5529 53.0329 0 0 0
7 3 28.8417 33.597 52.3638 0 0 0
8 3 29.1647 32.5926 51.4452 0 0 0
12 3 29.4719 31.6235 48.6711 0 0 0
29 3 28.2658 31.5465 51.2126 0 0 0
30 3 27.0742 31.5055 51.8894 0 0 0
31 1 25.0378 33.8389 53.7533 0 0 0
36 6 24.5411 30.7635 52.694 0 0 0
37 6 24.569 32.1876 51.6085 0 0 0
38 6 27.3957 34.3282 53.742 0 0 0
39 6 29.5334 34.4062 52.5453 0 0 0
40 6 28.4894 31.9107 49.0156 0 0 0
65 6 28.5119 30.7697 50.5038 0 0 0
66 6 26.3796 30.698 51.7104 0 0 0
67 6 25.2121 34.4869 52.8944 0 0 0
33 6 23.3163 33.5643 55.0577 0 0 0
68 6 25.5158 34.2488 54.643 0 0 0
76 1 52.3007 29.0327 3.40902 0 0 0
77 1 51.0874 29.8373 2.93614 0 0 0
78 1 53.2664 28.7555 2.25115 0 0 0
99 6 51.9698 28.0835 3.84665 0 0 0
100 6 52.8416 29.5815 4.18751 0 0 0
101 6 50.5952 29.3 2.11608 0 0 0
103 6 52.7409 28.1924 1.46897 0 0 0
104 6 53.5674 29.7102 1.80157 0 0 0
109 6 49.6932 29.1188 4.41708 0 0 0
74 1 57.8327 29.4873 3.14253 0 0 0
79 1 56.8282 29.7827 2.02608 0 0 0
82 1 54.5134 27.9771 2.68388 0 0 0
83 3 56.4991 28.5355 1.25751 0 0 0
85 3 55.467 27.7308 1.551 0 0 0
94 6 55.8971 29.6926 5.22244 0 0 0
95 6 57.446 28.7056 3.80699 0 0 0
96 6 58.7534 29.0815 2.70292 0 0 0
111 6 55.0019 28.4884 3.51746 0 0 0
112 6 54.2089 27.0019 3.08483 0 0 0
113 6 57.1463 28.2762 0.42395 0 0 0
116 6 55.295 26.8523 0.935 0 0 0
70 4 53.0083 29.3098 9.62937 0 0 0
107 6 54.1202 29.5674 7.07239 0 0 0
60 6 40.0268 23.992 38.4733 0 0 0
49 6 34.6744 28.3977 41.8335 0 0 0
21 1 36.8544 26.8573 41.2811 0 0 0
22 1 38.3664 26.6465 41.1793 0 0 0
23 1 38.692 25.9082 39.8793 0 0 0
24 1 40.204 25.6975 39.7776 0 0 0
25 1 40.5296 24.9591 38.4776 0 0 0
52 6 36.3516 25.8901 41.2767 0 0 0
53 6 36.512 27.4486 40.4319 0 0 0
54 6 38.8691 27.6135 41.1836 0 0 0
56 6 38.1892 24.9411 39.875 0 0 0
57 6 38.3496 26.4995 39.0301 0 0 0
58 6 40.7067 26.6645 39.7819 0 0 0
59 6 40.5464 25.1061 40.6268 0 0 0
61 6 40.1872 25.5505 37.6284 0 0 0
26 5 42.3223 24.7092 38.3569 0 0 0
62 7 42.4592 24.0606 37.1867 0 0 0
15 5 31.0609 29.7436 45.5052 0 0 0
16 1 32.8535 29.4937 45.3845 0 0 0
17 1 33.1791 28.7554 44.0845 0 0 0
18 1 34.6911 28.5447 43.9828 0 0 0
19 1 35.0167 27.8063 42.6828 0 0 0
43 6 33.1959 28.9024 46.2336 0 0 0
44 6 32.6764 27.7883 44.0802 0 0 0
45 6 32.8367 29.3468 43.2353 0 0 0
46 6 35.194 29.5117 43.9871 0 0 0
47 6 35.0335 27.9533 44.832 0 0 0
48 6 34.5139 26.8392 42.6785 0 0 0
20 1 36.5288 27.5955 42.581 0 0 0
50 6 37.0316 28.5627 42.5854 0 0 0
51 6 36.8712 27.0042 43.4302 0 0 0
55 6 38.7088 26.0552 42.0285 0 0 0
81 1 50.0538 30.0835 4.03921 0 0 0
84 1 50.5909 30.9218 5.20015 0 0 0
102 6 51.4198 30.8 2.52901 0 0 0
110 6 49.1882 30.5926 3.59766 0 0 0
114 6 51.4496 30.426 5.66263 0 0 0
115 6 50.9324 31.8958 4.83204 0 0 0
120 6 48.6574 31.6452 5.8662 0 0 0
71 1 57.0337 31.445 4.64838 0 0 0
72 1 58.2032 30.721 3.97199 0 0 0
73 1 56.3137 30.5881 5.69257 0 0 0
89 6 56.3192 31.81 3.90301 0 0 0
90 6 57.433 32.3382 5.14565 0 0 0
91 6 58.7172 31.438 3.31928 0 0 0
92 6 58.9323 30.4238 4.73587 0 0 0
98 6 54.4271 31.6317 5.6739 0 0 0
105 6 57.2546 30.5152 1.32965 0 0 0
106 6 55.9187 30.2445 2.41984 0 0 0
69 8 51.6913 31.1431 9.8705 0 0 0
86 1 53.3769 31.2496 8.20222 0 0 0
87 1 49.5317 31.1267 6.27253 0 0 0
88 3 52.7078 30.4476 9.2963 0 0 0
117 6 52.6144 31.5259 7.4676 0 0 0
118 6 53.7732 32.1653 8.65577 0 0 0
119 6 49.2022 30.1684 6.68687 0 0 0
121 6 49.9336 31.7303 7.09232 0 0 0
122 7 51.2456 30.6247 10.574 0 0 0
75 1 55.1816 31.33 6.41108 0 0 0
80 1 54.5123 30.4949 7.50829 0 0 0
93 6 57.0433 30.244 6.43626 0 0 0
97 6 55.5791 32.251 6.85487 0 0 0
108 6 55.2629 30.1978 8.2512 0 0 0
14 3 30.8814 30.5933 47.0383 0 0 0
27 3 32.0072 30.8927 47.8032 0 0 0
42 6 33.3563 30.4608 45.3888 0 0 0
63 6 32.9879 30.6034 47.4557 0 0 0
9 3 30.4501 32.6365 50.724 0 0 0
10 4 31.3868 33.2592 51.1876 0 0 0
11 3 30.6003 31.9257 49.4414 0 0 0
28 3 31.872 31.5567 48.9889 0 0 0
64 6 32.7448 31.7883 49.5813 0 0 0
ITEM: TIMESTEP
25
ITEM: NUMBER OF ATOMS
122
ITEM: BOX BOUNDS pp pp pp
0.0000000000000000e+00 6.0000000000000000e+01
0.0000000000000000e+00 6.0000000000000000e+01
0.0000000000000000e+00 6.0000000000000000e+01
ITEM: ATOMS id type xu yu zu vx vy vz
13 3 29.6514 30.9624 47.4105 0 0 0
41 6 28.8197 30.7281 46.8564 0 0 0
1 1 23.4571 33.6657 54.0049 0 0 0
2 1 23.092 32.3633 53.2768 0 0 0
32 6 22.9117 34.52 53.6004 0 0 0
34 6 22.7167 31.6189 53.9828 0 0 0
35 6 22.3561 32.5321 52.4884 0 0 0
3 1 24.4013 31.8727 52.668 0 0 0
4 2 25.485 32.5018 53.4677 0 0 0
5 3 26.7648 32.5088 52.8386 0 0 0
6 3 27.7135 33.5419 53.0657 0 0 0
7 3 28.9203 33.5849 52.3686 0 0 0
8 3 29.2446 32.5737 51.4393 0 0 0
12 3 29.4914 31.6957 48.5854 0 0 0
29 3 28.3398 31.4852 51.2992 0 0 0
30 3 27.124 31.4696 51.9531 0 0 0
31 1 24.9542 33.8503 53.772 0 0 0
36 6 24.4557 30.7808 52.7239 0 0 0
37 6 24.4613 32.1819 51.6155 0 0 0
38 6 27.525 34.2963 53.7252 0 0 0
39 6 29.5499 34.3784 52.5282 0 0 0
40 6 28.5484 32.0199 48.8039 0 0 0
65 6 28.5465 30.6781 50.7106 0 0 0
66 6 26.4997 30.6858 51.7507 0 0 0
67 6 25.1182 34.5339 52.9281 0 0 0
33 6 23.2639 33.5732 55.0759 0 0 0
68 6 25.4317 34.2597 54.667 0 0 0
76 1 52.3096 29.0204 3.39333 0 0 0
77 1 51.0815 29.8415 2.92379 0 0 0
78 1 53.2713 28.7337 2.21988 0 0 0
99 6 51.9721 28.0765 3.83158 0 0 0
100 6 52.8603 29.5759 4.15636 0 0 0
101 6 50.5871 29.3018 2.11093 0 0 0
103 6 52.7393 28.1739 1.44695 0 0 0
104 6 53.5917 29.6895 1.79287 0 0 0
109 6 49.6906 29.1133 4.41477 0 0 0
74 1 57.854 29.484 3.12808 0 0 0
79 1 56.8545 29.7822 1.98028 0 0 0
82 1 54.5054 27.9215 2.6774 0 0 0
83 3 56.5192 28.5504 1.23708 0 0 0
85 3 55.4458 27.7022 1.5562 0 0 0
94 6 55.8972 29.7055 5.23146 0 0 0
95 6 57.4525 28.7115 3.78955 0 0 0
96 6 58.7723 29.0801 2.69356 0 0 0
111 6 54.9968 28.4408 3.49808 0 0 0
112 6 54.1881 26.9541 3.07033 0 0 0
113 6 57.1229 28.2883 0.453403 0 0 0
116 6 55.2907 26.8851 0.960286 0 0 0
70 4 53.0123 29.3302 9.61158 0 0 0
107 6 54.1166 29.5665 7.06075 0 0 0
60 6 40.084 23.9669 38.4365 0 0 0
49 6 34.6676 28.3939 41.825 0 0 0
21 1 36.8583 26.8549 41.2775 0 0 0
22 1 38.3754 26.6418 41.1724 0 0 0
23 1 38.7086 25.8999 39.8672 0 0 0
24 1 40.229 25.6813 39.7526 0 0 0
25 1 40.5836 24.9391 38.451 0 0 0
52 6 36.348 25.8863 41.2682 0 0 0
53 6 36.5083 27.4441 40.4236 0 0 0
54 6 38.8813 27.6127 41.1856 0 0 0
56 6 38.1945 24.9336 39.8599 0 0 0
57 6 38.3547 26.4902 39.016 0 0 0
58 6 40.732 26.6532 39.7695 0 0 0
59 6 40.572 25.0978 40.6128 0 0 0
61 6 40.2443 25.5243 37.5921 0 0 0
26 5 42.3751 24.7127 38.3733 0 0 0
62 7 42.3638 24.0655 37.1777 0 0 0
15 5 31.0401 29.7209 45.4869 0 0 0
16 1 32.8212 29.4804 45.3572 0 0 0
17 1 33.1569 28.7475 44.0663 0 0 0
18 1 34.6796 28.5446 43.9804 0 0 0
19 1 35.0146 27.8053 42.6804 0 0 0
43 6 33.1684 28.8792 46.2031 0 0 0
44 6 32.651 27.778 44.0615 0 0 0
45 6 32.8114 29.3409 43.2152 0 0 0
46 6 35.1893 29.5143 43.9927 0 0 0
47 6 35.0292 27.9574 44.8367 0 0 0
48 6 34.5072 26.8352 42.67 0 0 0
20 1 36.5309 27.5954 42.5812 0 0 0
50 6 37.0385 28.5655 42.592 0 0 0
51 6 36.8781 27.0072 43.4369 0 0 0
55 6 38.7211 26.0554 42.0299 0 0 0
81 1 50.0378 30.0803 4.03961 0 0 0
84 1 50.5781 30.932 5.21629 0 0 0
102 6 51.4143 30.8063 2.53002 0 0 0
110 6 49.18 30.5941 3.59624 0 0 0
114 6 51.424 30.4274 5.68391 0 0 0
115 6 50.9188 31.9023 4.8431 0 0 0
120 6 48.644 31.6602 5.88301 0 0 0
71 1 57.0487 31.466 4.66268 0 0 0
72 1 58.2284 30.7367 3.96441 0 0 0
73 1 56.3238 30.5861 5.71075 0 0 0
89 6 56.3319 31.8262 3.92155 0 0 0
90 6 57.4502 32.3491 5.16552 0 0 0
91 6 58.7329 31.4502 3.30881 0 0 0
92 6 58.9479 30.4336 4.7304 0 0 0
98 6 54.427 31.6311 5.67041 0 0 0
105 6 57.2885 30.512 1.29433 0 0 0
106 6 55.9416 30.2294 2.37166 0 0 0
69 8 51.6652 31.0983 9.91874 0 0 0
86 1 53.3739 31.2471 8.21761 0 0 0
87 1 49.5089 31.1443 6.30256 0 0 0
88 3 52.6887 30.4939 9.27925 0 0 0
117 6 52.6249 31.5328 7.47882 0 0 0
118 6 53.7743 32.1603 8.66237 0 0 0
119 6 49.1921 30.18 6.70581 0 0 0
121 6 49.9228 31.7451 7.11343 0 0 0
122 7 51.1824 30.6329 10.6322 0 0 0
75 1 55.1792 31.3473 6.41335 0 0 0
80 1 54.517 30.4807 7.51051 0 0 0
93 6 57.0504 30.2487 6.45442 0 0 0
97 6 55.5797 32.2588 6.86545 0 0 0
108 6 55.2714 30.1991 8.25164 0 0 0
14 3 30.9374 30.5724 47.0015 0 0 0
27 3 32.0427 30.9106 47.8219 0 0 0
42 6 33.3254 30.4521 45.3501 0 0 0
63 6 32.9958 30.6676 47.5819 0 0 0
9 3 30.427 32.6229 50.6913 0 0 0
10 4 31.404 33.2682 51.1774 0 0 0
11 3 30.5917 31.9833 49.4501 0 0 0
28 3 31.875 31.5999 49.0198 0 0 0
64 6 32.7062 31.7998 49.5867 0 0 0
ITEM: TIMESTEP
50
ITEM: NUMBER OF ATOMS
122
ITEM: BOX BOUNDS pp pp pp
0.0000000000000000e+00 6.0000000000000000e+01
0.0000000000000000e+00 6.0000000000000000e+01
0.0000000000000000e+00 6.0000000000000000e+01
ITEM: ATOMS id type xu yu zu vx vy vz
13 3 29.687 31.0253 47.3899 0 0 0
41 6 28.8685 30.8131 46.8117 0 0 0
1 1 23.379 33.6825 54.0378 0 0 0
2 1 23.0201 32.3796 53.3068 0 0 0
32 6 22.8094 34.5299 53.6475 0 0 0
34 6 22.6427 31.6379 54.0164 0 0 0
35 6 22.2663 32.5473 52.5329 0 0 0
3 1 24.3386 31.8963 52.6856 0 0 0
4 2 25.4345 32.5408 53.4607 0 0 0
5 3 26.7468 32.518 52.8645 0 0 0
6 3 27.704 33.539 53.0965 0 0 0
7 3 28.9305 33.5698 52.4112 0 0 0
8 3 29.2578 32.5632 51.477 0 0 0
12 3 29.5145 31.7478 48.5782 0 0 0
29 3 28.3783 31.46 51.3689 0 0 0
30 3 27.1481 31.4438 52.0367 0 0 0
31 1 24.8822 33.8798 53.7928 0 0 0
36 6 24.3985 30.8068 52.7549 0 0 0
37 6 24.3789 32.1893 51.6295 0 0 0
38 6 27.5163 34.2913 53.7582 0 0 0
39 6 29.5669 34.3538 52.5794 0 0 0
40 6 28.5721 32.0805 48.7931 0 0 0
65 6 28.6196 30.6426 50.8029 0 0 0
66 6 26.5455 30.6331 51.8949 0 0 0
67 6 25.0306 34.5813 52.9627 0 0 0
33 6 23.182 33.5828 55.1086 0 0 0
68 6 25.3572 34.2829 54.691 0 0 0
76 1 52.3078 29.0119 3.37021 0 0 0
77 1 51.0756 29.8456 2.92598 0 0 0
78 1 53.2694 28.7058 2.19494 0 0 0
99 6 51.9667 28.071 3.81086 0 0 0
100 6 52.865 29.5649 4.12993 0 0 0
101 6 50.5749 29.3185 2.1085 0 0 0
103 6 52.7319 28.1491 1.42224 0 0 0
104 6 53.6039 29.6529 1.76162 0 0 0
109 6 49.6856 29.111 4.4217 0 0 0
74 1 57.8749 29.4976 3.11037 0 0 0
79 1 56.8789 29.7735 1.95253 0 0 0
82 1 54.5005 27.8811 2.64873 0 0 0
83 3 56.5311 28.5327 1.22347 0 0 0
85 3 55.4572 27.6804 1.5371 0 0 0
94 6 55.9214 29.7188 5.24169 0 0 0
95 6 57.4726 28.7271 3.77162 0 0 0
96 6 58.7978 29.0958 2.6818 0 0 0
111 6 54.9904 28.3758 3.48693 0 0 0
112 6 54.1704 26.9034 3.00927 0 0 0
113 6 57.1295 28.2658 0.43705 0 0 0
116 6 55.3114 26.8653 0.935353 0 0 0
70 4 52.9829 29.3335 9.61613 0 0 0
107 6 54.0984 29.5886 7.06425 0 0 0
60 6 40.1588 23.9389 38.3988 0 0 0
49 6 34.6732 28.3785 41.7985 0 0 0
21 1 36.8864 26.8424 41.2595 0 0 0
22 1 38.4067 26.6233 41.1442 0 0 0
23 1 38.7569 25.8792 39.8382 0 0 0
24 1 40.2812 25.658 39.7196 0 0 0
25 1 40.649 24.9152 38.4192 0 0 0
52 6 36.3759 25.8744 41.2484 0 0 0
53 6 36.536 27.4297 40.405 0 0 0
54 6 38.9122 27.5938 41.1594 0 0 0
56 6 38.2447 24.9122 39.827 0 0 0
57 6 38.4046 26.4662 38.9844 0 0 0
58 6 40.7856 26.6287 39.7363 0 0 0
59 6 40.6257 25.0748 40.5788 0 0 0
61 6 40.3191 25.496 37.5545 0 0 0
26 5 42.435 24.6782 38.3211 0 0 0
62 7 42.354 24.0377 37.1244 0 0 0
15 5 31.0282 29.7045 45.5059 0 0 0
16 1 32.8008 29.4637 45.3345 0 0 0
17 1 33.1272 28.73 44.0356 0 0 0
18 1 34.6535 28.5313 43.9513 0 0 0
19 1 35.017 27.7924 42.6563 0 0 0
43 6 33.1578 28.8676 46.1789 0 0 0
44 6 32.6215 27.76 44.0265 0 0 0
45 6 32.7782 29.3223 43.1846 0 0 0
46 6 35.1556 29.5046 43.9694 0 0 0
47 6 34.999 27.9486 44.8121 0 0 0
48 6 34.5133 26.821 42.6423 0 0 0
20 1 36.5391 27.585 42.5629 0 0 0
50 6 37.0429 28.5567 42.5791 0 0 0
51 6 36.8827 27.0009 43.4226 0 0 0
55 6 38.7522 26.0389 42.0024 0 0 0
81 1 50.0301 30.0798 4.04953 0 0 0
84 1 50.5531 30.9324 5.23606 0 0 0
102 6 51.4102 30.8124 2.5395 0 0 0
110 6 49.1689 30.5895 3.60752 0 0 0
114 6 51.3971 30.4256 5.7053 0 0 0
115 6 50.8968 31.9021 4.86539 0 0 0
120 6 48.619 31.6828 5.90542 0 0 0
71 1 57.0765 31.4754 4.67686 0 0 0
72 1 58.2466 30.7515 3.95158 0 0 0
73 1 56.3415 30.6002 5.72635 0 0 0
89 6 56.3602 31.8488 3.94225 0 0 0
90 6 57.491 32.3491 5.18753 0 0 0
91 6 58.74 31.4727 3.29451 0 0 0
92 6 58.9806 30.4497 4.70434 0 0 0
98 6 54.4404 31.6418 5.67913 0 0 0
105 6 57.3295 30.4798 1.25064 0 0 0
106 6 55.9703 30.2397 2.33166 0 0 0
69 8 51.6381 31.0928 9.95174 0 0 0
86 1 53.3618 31.2605 8.24255 0 0 0
87 1 49.4818 31.1612 6.32331 0 0 0
88 3 52.6632 30.5018 9.29786 0 0 0
117 6 52.6176 31.5642 7.50581 0 0 0
118 6 53.7695 32.164 8.70011 0 0 0
119 6 49.1552 30.2056 6.73841 0 0 0
121 6 49.8987 31.7662 7.13081 0 0 0
122 7 51.1553 30.6154 10.6606 0 0 0
75 1 55.1861 31.3572 6.42784 0 0 0
80 1 54.5046 30.4957 7.52249 0 0 0
93 6 57.0642 30.2645 6.47495 0 0 0
97 6 55.5803 32.2698 6.88323 0 0 0
108 6 55.2547 30.1992 8.26174 0 0 0
14 3 30.968 30.6015 47.0014 0 0 0
27 3 32.0726 30.9301 47.8255 0 0 0
42 6 33.2938 30.4398 45.3214 0 0 0
63 6 33.0267 30.665 47.5961 0 0 0
9 3 30.4389 32.6488 50.702 0 0 0
10 4 31.398 33.3172 51.1594 0 0 0
11 3 30.6048 32.0172 49.4468 0 0 0
28 3 31.8948 31.6351 49.021 0 0 0
64 6 32.7193 31.837 49.5936 0 0 0
ITEM: TIMESTEP
75
ITEM: NUMBER OF ATOMS
122
ITEM: BOX BOUNDS pp pp pp
0.0000000000000000e+00 6.0000000000000000e+01
0.0000000000000000e+00 6.0000000000000000e+01
0.0000000000000000e+00 6.0000000000000000e+01
ITEM: ATOMS id type xu yu zu vx vy vz
13 3 29.688 31.0358 47.3925 0 0 0
41 6 28.8697 30.8294 46.8117 0 0 0
1 1 23.3704 33.6839 54.0433 0 0 0
2 1 23.0127 32.3812 53.3114 0 0 0
32 6 22.7993 34.531 53.6543 0 0 0
34 6 22.636 31.6389 54.0207 0 0 0
35 6 22.2581 32.5488 52.5383 0 0 0
3 1 24.3317 31.8995 52.6892 0 0 0
4 2 25.4275 32.5442 53.4646 0 0 0
5 3 26.7409 32.5203 52.8709 0 0 0
6 3 27.6983 33.5427 53.1008 0 0 0
7 3 28.9256 33.5714 52.4192 0 0 0
8 3 29.2572 32.5651 51.4845 0 0 0
12 3 29.5148 31.7533 48.5836 0 0 0
29 3 28.376 31.4599 51.3794 0 0 0
30 3 27.1471 31.4434 52.0477 0 0 0
31 1 24.8735 33.8827 53.7972 0 0 0
36 6 24.3923 30.81 52.7575 0 0 0
37 6 24.3716 32.1933 51.6333 0 0 0
38 6 27.5076 34.2968 53.7598 0 0 0
39 6 29.5631 34.3549 52.5888 0 0 0
40 6 28.5731 32.0857 48.8004 0 0 0
65 6 28.6198 30.6428 50.814 0 0 0
66 6 26.5461 30.6302 51.9112 0 0 0
67 6 25.0202 34.5844 52.967 0 0 0
33 6 23.1741 33.5831 55.1142 0 0 0
68 6 25.3483 34.2867 54.6951 0 0 0
76 1 52.3077 29.0103 3.36829 0 0 0
77 1 51.0754 29.8461 2.92735 0 0 0
78 1 53.2681 28.7034 2.19158 0 0 0
99 6 51.9658 28.0693 3.80832 0 0 0
100 6 52.8658 29.5618 4.12831 0 0 0
101 6 50.5739 29.3215 2.10877 0 0 0
103 6 52.7292 28.1469 1.41959 0 0 0
104 6 53.6027 29.6499 1.75747 0 0 0
109 6 49.6859 29.1097 4.42349 0 0 0
74 1 57.8768 29.4982 3.10897 0 0 0
79 1 56.8809 29.7717 1.95029 0 0 0
82 1 54.4997 27.8775 2.64307 0 0 0
83 3 56.5338 28.53 1.22184 0 0 0
85 3 55.4586 27.6783 1.5327 0 0 0
94 6 55.9239 29.7198 5.24442 0 0 0
95 6 57.475 28.7279 3.77064 0 0 0
96 6 58.8002 29.0971 2.68081 0 0 0
111 6 54.9895 28.3696 3.48304 0 0 0
112 6 54.169 26.8989 3.00042 0 0 0
113 6 57.1341 28.262 0.437077 0 0 0
116 6 55.3144 26.8633 0.93029 0 0 0
70 4 52.9785 29.333 9.61437 0 0 0
107 6 54.0953 29.5927 7.06447 0 0 0
60 6 40.1683 23.9343 38.3919 0 0 0
49 6 34.6744 28.374 41.7906 0 0 0
21 1 36.8932 26.8386 41.2537 0 0 0
22 1 38.4144 26.6197 41.1389 0 0 0
23 1 38.7673 25.8754 39.8331 0 0 0
24 1 40.2919 25.6535 39.7132 0 0 0
25 1 40.6589 24.9103 38.4122 0 0 0
52 6 36.3834 25.8703 41.2418 0 0 0
53 6 36.5435 27.4253 40.3985 0 0 0
54 6 38.9197 27.5902 41.1545 0 0 0
56 6 38.2554 24.9083 39.8214 0 0 0
57 6 38.4153 26.462 38.979 0 0 0
58 6 40.7969 26.6238 39.7296 0 0 0
59 6 40.6369 25.0701 40.5719 0 0 0
61 6 40.3285 25.4913 37.5477 0 0 0
26 5 42.4447 24.6717 38.311 0 0 0
62 7 42.3621 24.0313 37.1142 0 0 0
15 5 31.0271 29.7082 45.5091 0 0 0
16 1 32.799 29.4627 45.3317 0 0 0
17 1 33.1239 28.7274 44.0317 0 0 0
18 1 34.6506 28.5274 43.9438 0 0 0
19 1 35.0176 27.7884 42.6489 0 0 0
43 6 33.1572 28.8672 46.1759 0 0 0
44 6 32.6178 27.7577 44.0233 0 0 0
45 6 32.7736 29.319 43.1808 0 0 0
46 6 35.1523 29.5008 43.9619 0 0 0
47 6 34.9964 27.9451 44.8046 0 0 0
48 6 34.5145 26.8168 42.634 0 0 0
20 1 36.5408 27.5814 42.5563 0 0 0
50 6 37.044 28.5534 42.5734 0 0 0
51 6 36.8838 26.9979 43.4167 0 0 0
55 6 38.7596 26.0356 41.9974 0 0 0
81 1 50.0297 30.0789 4.05154 0 0 0
84 1 50.551 30.9318 5.23861 0 0 0
102 6 51.4106 30.8136 2.54297 0 0 0
110 6 49.1679 30.5877 3.60977 0 0 0
114 6 51.3944 30.4248 5.709 0 0 0
115 6 50.8957 31.9011 4.86786 0 0 0
120 6 48.6166 31.6851 5.90489 0 0 0
71 1 57.0788 31.476 4.67822 0 0 0
72 1 58.2477 30.753 3.94968 0 0 0
73 1 56.3435 30.6017 5.72875 0 0 0
89 6 56.362 31.8505 3.94466 0 0 0
90 6 57.495 32.3489 5.1891 0 0 0
91 6 58.7385 31.4749 3.29133 0 0 0
92 6 58.9843 30.4524 4.70044 0 0 0
98 6 54.443 31.6452 5.68138 0 0 0
105 6 57.332 30.4769 1.24741 0 0 0
106 6 55.9723 30.2385 2.32861 0 0 0
69 8 51.6362 31.0929 9.95475 0 0 0
86 1 53.3613 31.2632 8.24616 0 0 0
87 1 49.4783 31.1629 6.32429 0 0 0
88 3 52.6608 30.5027 9.29927 0 0 0
117 6 52.6177 31.5703 7.51015 0 0 0
118 6 53.7703 32.1646 8.70661 0 0 0
119 6 49.1498 30.2083 6.74022 0 0 0
121 6 49.8946 31.7684 7.13174 0 0 0
122 7 51.1524 30.6139 10.6621 0 0 0
75 1 55.1877 31.3592 6.43047 0 0 0
80 1 54.5032 30.4982 7.52419 0 0 0
93 6 57.0664 30.2668 6.47763 0 0 0
97 6 55.5823 32.2711 6.88683 0 0 0
108 6 55.2525 30.1989 8.26321 0 0 0
14 3 30.9678 30.6082 47.0036 0 0 0
27 3 32.0728 30.9349 47.8283 0 0 0
42 6 33.293 30.4381 45.3177 0 0 0
63 6 33.026 30.6679 47.5973 0 0 0
9 3 30.4352 32.6506 50.7089 0 0 0
10 4 31.3954 33.3239 51.1648 0 0 0
11 3 30.6058 32.0208 49.4536 0 0 0
28 3 31.8949 31.6397 49.0247 0 0 0
64 6 32.7203 31.8426 49.5965 0 0 0
ITEM: TIMESTEP
100
ITEM: NUMBER OF ATOMS
122
ITEM: BOX BOUNDS pp pp pp
0.0000000000000000e+00 6.0000000000000000e+01
0.0000000000000000e+00 6.0000000000000000e+01
0.0000000000000000e+00 6.0000000000000000e+01
ITEM: ATOMS id type xu yu zu vx vy vz
13 3 29.6884 31.0448 47.3951 0 0 0
41 6 28.8705 30.8431 46.8125 0 0 0
1 1 23.3626 33.685 54.0486 0 0 0
2 1 23.0061 32.3826 53.3158 0 0 0
32 6 22.7901 34.5318 53.6608 0 0 0
34 6 22.6301 31.6395 54.0248 0 0 0
35 6 22.2507 32.5502 52.5433 0 0 0
3 1 24.3256 31.9025 52.6927 0 0 0
4 2 25.421 32.5472 53.4686 0 0 0
5 3 26.7362 32.5229 52.8766 0 0 0
6 3 27.6918 33.5463 53.1051 0 0 0
7 3 28.922 33.5736 52.4256 0 0 0
8 3 29.2535 32.5664 51.4925 0 0 0
12 3 29.5152 31.7582 48.5894 0 0 0
29 3 28.375 31.4612 51.3885 0 0 0
30 3 27.1446 31.4437 52.0581 0 0 0
31 1 24.8656 33.8853 53.8017 0 0 0
36 6 24.3867 30.813 52.7598 0 0 0
37 6 24.3651 32.1974 51.6371 0 0 0
38 6 27.4998 34.3024 53.7614 0 0 0
39 6 29.5588 34.3568 52.5965 0 0 0
40 6 28.5732 32.09 48.8071 0 0 0
65 6 28.6191 30.6433 50.8243 0 0 0
66 6 26.546 30.6285 51.9254 0 0 0
67 6 25.0108 34.5871 52.9713 0 0 0
33 6 23.1668 33.5831 55.1195 0 0 0
68 6 25.3402 34.2902 54.6992 0 0 0
76 1 52.3075 29.0086 3.36663 0 0 0
77 1 51.0754 29.8465 2.92861 0 0 0
78 1 53.2669 28.7013 2.18855 0 0 0
99 6 51.9651 28.0676 3.8059 0 0 0
100 6 52.8666 29.5588 4.12703 0 0 0
101 6 50.5733 29.3242 2.10896 0 0 0
103 6 52.7268 28.1452 1.41713 0 0 0
104 6 53.6015 29.6476 1.7539 0 0 0
109 6 49.6867 29.1083 4.42517 0 0 0
74 1 57.8782 29.4987 3.10801 0 0 0
79 1 56.8825 29.7701 1.94867 0 0 0
82 1 54.499 27.8746 2.638 0 0 0
83 3 56.5363 28.5278 1.22059 0 0 0
85 3 55.4595 27.6768 1.52863 0 0 0
94 6 55.9258 29.7207 5.24697 0 0 0
95 6 57.4768 28.7286 3.77012 0 0 0
96 6 58.8021 29.098 2.68021 0 0 0
111 6 54.9886 28.3645 3.47946 0 0 0
112 6 54.1678 26.8951 2.9927 0 0 0
113 6 57.1385 28.2588 0.437544 0 0 0
116 6 55.3166 26.8621 0.925367 0 0 0
70 4 52.9743 29.3325 9.61225 0 0 0
107 6 54.0926 29.5964 7.06446 0 0 0
60 6 40.1774 23.9298 38.3853 0 0 0
49 6 34.6753 28.3697 41.7831 0 0 0
21 1 36.8996 26.8349 41.2478 0 0 0
22 1 38.4216 26.6162 41.1337 0 0 0
23 1 38.7771 25.8717 39.8281 0 0 0
24 1 40.302 25.6491 39.707 0 0 0
25 1 40.6683 24.9057 38.4055 0 0 0
52 6 36.3906 25.8662 41.2351 0 0 0
53 6 36.5507 27.4209 40.3919 0 0 0
54 6 38.9267 27.5868 41.1498 0 0 0
56 6 38.2656 24.9044 39.816 0 0 0
57 6 38.4255 26.458 38.9737 0 0 0
58 6 40.8075 26.6191 39.7231 0 0 0
59 6 40.6476 25.0655 40.5654 0 0 0
61 6 40.3377 25.4867 37.5412 0 0 0
26 5 42.4539 24.6657 38.3017 0 0 0
62 7 42.3698 24.0254 37.1048 0 0 0
15 5 31.0265 29.713 45.5117 0 0 0
16 1 32.7978 29.4624 45.3295 0 0 0
17 1 33.1212 28.7252 44.0285 0 0 0
18 1 34.648 28.5237 43.9367 0 0 0
19 1 35.018 27.7845 42.6417 0 0 0
43 6 33.1565 28.8672 46.1736 0 0 0
44 6 32.6145 27.7558 44.0211 0 0 0
45 6 32.7696 29.316 43.1775 0 0 0
46 6 35.1497 29.4971 43.9547 0 0 0
47 6 34.9944 27.9417 44.7974 0 0 0
48 6 34.5155 26.8127 42.6261 0 0 0
20 1 36.5423 27.5778 42.5498 0 0 0
50 6 37.0448 28.5501 42.5676 0 0 0
51 6 36.8847 26.9949 43.4107 0 0 0
55 6 38.7666 26.0324 41.9925 0 0 0
81 1 50.0296 30.0778 4.05339 0 0 0
84 1 50.5495 30.9311 5.24088 0 0 0
102 6 51.4111 30.8145 2.54625 0 0 0
110 6 49.1672 30.5858 3.61186 0 0 0
114 6 51.3921 30.4239 5.71248 0 0 0
115 6 50.8951 31.9 4.87003 0 0 0
120 6 48.6146 31.6871 5.90386 0 0 0
71 1 57.0805 31.4765 4.67927 0 0 0
72 1 58.2485 30.7542 3.94809 0 0 0
73 1 56.3452 30.603 5.73087 0 0 0
89 6 56.3632 31.8516 3.94659 0 0 0
90 6 57.498 32.3489 5.19007 0 0 0
91 6 58.7369 31.4767 3.28853 0 0 0
92 6 58.9872 30.4549 4.69716 0 0 0
98 6 54.4456 31.6486 5.68362 0 0 0
105 6 57.3337 30.4745 1.24509 0 0 0
106 6 55.9737 30.237 2.3264 0 0 0
69 8 51.6347 31.0933 9.95721 0 0 0
86 1 53.3612 31.2657 8.24931 0 0 0
87 1 49.4752 31.1643 6.32489 0 0 0
88 3 52.6588 30.5036 9.30023 0 0 0
117 6 52.6184 31.5763 7.51394 0 0 0
118 6 53.7717 32.1651 8.71252 0 0 0
119 6 49.1449 30.2106 6.74143 0 0 0
121 6 49.8908 31.7703 7.13239 0 0 0
122 7 51.15 30.6128 10.6629 0 0 0
75 1 55.1894 31.361 6.43293 0 0 0
80 1 54.5023 30.5004 7.52566 0 0 0
93 6 57.0684 30.2687 6.47983 0 0 0
97 6 55.5845 32.2721 6.89032 0 0 0
108 6 55.2506 30.1984 8.26441 0 0 0
14 3 30.9677 30.6148 47.0061 0 0 0
27 3 32.0724 30.9397 47.8311 0 0 0
42 6 33.2933 30.4369 45.3146 0 0 0
63 6 33.0252 30.6715 47.5987 0 0 0
9 3 30.4346 32.6534 50.716 0 0 0
10 4 31.3915 33.3276 51.1705 0 0 0
11 3 30.6049 32.0236 49.4595 0 0 0
28 3 31.895 31.6439 49.0289 0 0 0
64 6 32.7203 31.8472 49.6 0 0 0
ITEM: TIMESTEP
125
ITEM: NUMBER OF ATOMS
122
ITEM: BOX BOUNDS pp pp pp
0.0000000000000000e+00 6.0000000000000000e+01
0.0000000000000000e+00 6.0000000000000000e+01
0.0000000000000000e+00 6.0000000000000000e+01
ITEM: ATOMS id type xu yu zu vx vy vz
13 3 29.6887 31.0538 47.3985 0 0 0
41 6 28.8709 30.856 46.814 0 0 0
1 1 23.3545 33.6861 54.0546 0 0 0
2 1 22.9991 32.3839 53.3206 0 0 0
32 6 22.7804 34.5325 53.6682 0 0 0
34 6 22.6239 31.64 54.0291 0 0 0
35 6 22.2431 32.5515 52.5487 0 0 0
3 1 24.3192 31.9058 52.6966 0 0 0
4 2 25.4143 32.5505 53.4732 0 0 0
5 3 26.7302 32.5259 52.883 0 0 0
6 3 27.6858 33.5508 53.1092 0 0 0
7 3 28.9163 33.5765 52.4325 0 0 0
8 3 29.2518 32.569 51.4998 0 0 0
12 3 29.5144 31.7627 48.5951 0 0 0
29 3 28.3716 31.4621 51.3983 0 0 0
30 3 27.1426 31.4447 52.0681 0 0 0
31 1 24.8573 33.888 53.8068 0 0 0
36 6 24.381 30.8163 52.7622 0 0 0
37 6 24.3585 32.2021 51.6414 0 0 0
38 6 27.4912 34.3086 53.7631 0 0 0
39 6 29.5537 34.3597 52.6036 0 0 0
40 6 28.5729 32.0939 48.8144 0 0 0
65 6 28.618 30.6443 50.8351 0 0 0
66 6 26.545 30.6275 51.9395 0 0 0
67 6 25.001 34.5899 52.9764 0 0 0
33 6 23.1592 33.5829 55.1255 0 0 0
68 6 25.3316 34.2938 54.7041 0 0 0
76 1 52.3074 29.0068 3.36497 0 0 0
77 1 51.0755 29.8468 2.92991 0 0 0
78 1 53.2656 28.6994 2.18546 0 0 0
99 6 51.9644 28.0656 3.80325 0 0 0
100 6 52.8674 29.5554 4.12589 0 0 0
101 6 50.5728 29.327 2.10911 0 0 0
103 6 52.7243 28.1437 1.41451 0 0 0
104 6 53.6002 29.6454 1.75046 0 0 0
109 6 49.6879 29.1065 4.42694 0 0 0
74 1 57.8794 29.499 3.10734 0 0 0
79 1 56.8838 29.7684 1.9474 0 0 0
82 1 54.4982 27.8718 2.63285 0 0 0
83 3 56.5387 28.5255 1.21952 0 0 0
85 3 55.4603 27.6754 1.52438 0 0 0
94 6 55.9274 29.7216 5.24965 0 0 0
95 6 57.4783 28.7292 3.76996 0 0 0
96 6 58.8036 29.0987 2.67993 0 0 0
111 6 54.9876 28.3596 3.47574 0 0 0
112 6 54.1666 26.8914 2.98498 0 0 0
113 6 57.143 28.2556 0.438372 0 0 0
116 6 55.3182 26.8613 0.919956 0 0 0
70 4 52.9698 29.3319 9.60948 0 0 0
107 6 54.09 29.6004 7.06424 0 0 0
60 6 40.1874 23.925 38.3781 0 0 0
49 6 34.6761 28.365 41.7749 0 0 0
21 1 36.9064 26.8306 41.2411 0 0 0
22 1 38.4294 26.6123 41.128 0 0 0
23 1 38.7878 25.8676 39.8226 0 0 0
24 1 40.3128 25.6443 39.7003 0 0 0
25 1 40.6786 24.9008 38.3983 0 0 0
52 6 36.3983 25.8615 41.2275 0 0 0
53 6 36.5584 27.4159 40.3845 0 0 0
54 6 38.9341 27.583 41.1445 0 0 0
56 6 38.2766 24.9002 39.81 0 0 0
57 6 38.4364 26.4535 38.9678 0 0 0
58 6 40.8189 26.6141 39.7161 0 0 0
59 6 40.659 25.0606 40.5583 0 0 0
61 6 40.3477 25.4817 37.5341 0 0 0
26 5 42.4639 24.6593 38.2919 0 0 0
62 7 42.3782 24.0192 37.0949 0 0 0
15 5 31.0265 29.7197 45.5137 0 0 0
16 1 32.7972 29.4626 45.3272 0 0 0
17 1 33.1187 28.7232 44.0254 0 0 0
18 1 34.6457 28.5196 43.9292 0 0 0
19 1 35.0185 27.7802 42.634 0 0 0
43 6 33.1558 28.8677 46.1715 0 0 0
44 6 32.6112 27.7542 44.0195 0 0 0
45 6 32.7657 29.313 43.1743 0 0 0
46 6 35.1474 29.4929 43.9469 0 0 0
47 6 34.9926 27.938 44.7897 0 0 0
48 6 34.5163 26.8083 42.6176 0 0 0
20 1 36.5438 27.5737 42.5423 0 0 0
50 6 37.0456 28.5462 42.5609 0 0 0
51 6 36.8857 26.9915 43.4038 0 0 0
55 6 38.774 26.0289 41.9871 0 0 0
81 1 50.0297 30.0764 4.05533 0 0 0
84 1 50.5482 30.9302 5.24319 0 0 0
102 6 51.4119 30.8155 2.54977 0 0 0
110 6 49.1667 30.5836 3.61408 0 0 0
114 6 51.39 30.4227 5.71622 0 0 0
115 6 50.8949 31.8986 4.87223 0 0 0
120 6 48.6128 31.689 5.9023 0 0 0
71 1 57.0818 31.477 4.68015 0 0 0
72 1 58.249 30.7554 3.94659 0 0 0
73 1 56.3469 30.6043 5.73299 0 0 0
89 6 56.3638 31.8523 3.94829 0 0 0
90 6 57.5003 32.3491 5.1906 0 0 0
91 6 58.7351 31.4784 3.28575 0 0 0
92 6 58.9899 30.4575 4.69409 0 0 0
98 6 54.4484 31.6525 5.68618 0 0 0
105 6 57.3349 30.4725 1.24327 0 0 0
106 6 55.9748 30.2353 2.32467 0 0 0
69 8 51.6335 31.0939 9.95945 0 0 0
86 1 53.3615 31.2684 8.25248 0 0 0
87 1 49.4722 31.1657 6.32523 0 0 0
88 3 52.6568 30.5046 9.3009 0 0 0
117 6 52.6196 31.5828 7.51772 0 0 0
118 6 53.7736 32.1655 8.7187 0 0 0
119 6 49.1398 30.2129 6.74228 0 0 0
121 6 49.8868 31.7721 7.13288 0 0 0
122 7 51.1475 30.6119 10.6634 0 0 0
75 1 55.1913 31.3629 6.4356 0 0 0
80 1 54.5015 30.5026 7.5271 0 0 0
93 6 57.0704 30.2706 6.48186 0 0 0
97 6 55.5874 32.2731 6.8942 0 0 0
108 6 55.2489 30.1976 8.26552 0 0 0
14 3 30.9673 30.622 47.0085 0 0 0
27 3 32.072 30.9454 47.8344 0 0 0
42 6 33.2948 30.4358 45.3118 0 0 0
63 6 33.0242 30.6763 47.6003 0 0 0
9 3 30.4303 32.6545 50.7234 0 0 0
10 4 31.389 33.3313 51.1784 0 0 0
11 3 30.6047 32.0267 49.4668 0 0 0
28 3 31.894 31.648 49.0336 0 0 0
64 6 32.7198 31.8515 49.6046 0 0 0
ITEM: TIMESTEP
127
ITEM: NUMBER OF ATOMS
122
ITEM: BOX BOUNDS pp pp pp
0.0000000000000000e+00 6.0000000000000000e+01
0.0000000000000000e+00 6.0000000000000000e+01
0.0000000000000000e+00 6.0000000000000000e+01
ITEM: ATOMS id type xu yu zu vx vy vz
13 3 29.6887 31.0545 47.3988 0 0 0
41 6 28.871 30.8571 46.8141 0 0 0
1 1 23.3538 33.6862 54.0551 0 0 0
2 1 22.9985 32.3841 53.321 0 0 0
32 6 22.7796 34.5325 53.6688 0 0 0
34 6 22.6234 31.64 54.0295 0 0 0
35 6 22.2425 32.5517 52.5491 0 0 0
3 1 24.3187 31.9061 52.6969 0 0 0
4 2 25.4138 32.5508 53.4736 0 0 0
5 3 26.7297 32.5262 52.8835 0 0 0
6 3 27.6852 33.5512 53.1096 0 0 0
7 3 28.9159 33.5768 52.433 0 0 0
8 3 29.2515 32.5692 51.5004 0 0 0
12 3 29.5144 31.763 48.5956 0 0 0
29 3 28.3713 31.4622 51.3992 0 0 0
30 3 27.1424 31.4448 52.069 0 0 0
31 1 24.8566 33.8883 53.8073 0 0 0
36 6 24.3805 30.8166 52.7624 0 0 0
37 6 24.3579 32.2025 51.6418 0 0 0
38 6 27.4905 34.3092 53.7632 0 0 0
39 6 29.5532 34.36 52.6042 0 0 0
40 6 28.5728 32.0942 48.815 0 0 0
65 6 28.6178 30.6444 50.836 0 0 0
66 6 26.5449 30.6275 51.9407 0 0 0
67 6 25.0002 34.5901 52.9768 0 0 0
33 6 23.1586 33.5828 55.1261 0 0 0
68 6 25.3309 34.2941 54.7045 0 0 0
76 1 52.3074 29.0067 3.36484 0 0 0
77 1 51.0755 29.8468 2.93002 0 0 0
78 1 53.2655 28.6992 2.1852 0 0 0
99 6 51.9643 28.0654 3.80302 0 0 0
100 6 52.8675 29.5551 4.1258 0 0 0
101 6 50.5727 29.3272 2.10912 0 0 0
103 6 52.7241 28.1436 1.41428 0 0 0
104 6 53.6001 29.6453 1.75018 0 0 0
109 6 49.688 29.1063 4.42709 0 0 0
74 1 57.8795 29.499 3.1073 0 0 0
79 1 56.8839 29.7683 1.94732 0 0 0
82 1 54.4981 27.8716 2.63242 0 0 0
83 3 56.5389 28.5254 1.21944 0 0 0
85 3 55.4603 27.6753 1.52402 0 0 0
94 6 55.9275 29.7217 5.24988 0 0 0
95 6 57.4785 28.7292 3.76996 0 0 0
96 6 58.8038 29.0988 2.67992 0 0 0
111 6 54.9875 28.3592 3.47543 0 0 0
112 6 54.1665 26.8911 2.98435 0 0 0
113 6 57.1434 28.2553 0.438454 0 0 0
116 6 55.3184 26.8613 0.919489 0 0 0
70 4 52.9694 29.3318 9.60922 0 0 0
107 6 54.0897 29.6007 7.06421 0 0 0
60 6 40.1883 23.9246 38.3775 0 0 0
49 6 34.6762 28.3645 41.7742 0 0 0
21 1 36.9069 26.8303 41.2405 0 0 0
22 1 38.43 26.612 41.1275 0 0 0
23 1 38.7887 25.8673 39.8221 0 0 0
24 1 40.3138 25.6439 39.6997 0 0 0
25 1 40.6795 24.9003 38.3976 0 0 0
52 6 36.399 25.8611 41.2268 0 0 0
53 6 36.559 27.4155 40.3838 0 0 0
54 6 38.9348 27.5827 41.144 0 0 0
56 6 38.2775 24.8999 39.8095 0 0 0
57 6 38.4374 26.4531 38.9673 0 0 0
58 6 40.8199 26.6136 39.7155 0 0 0
59 6 40.66 25.0602 40.5577 0 0 0
61 6 40.3485 25.4813 37.5335 0 0 0
26 5 42.4648 24.6588 38.291 0 0 0
62 7 42.3789 24.0187 37.094 0 0 0
15 5 31.0266 29.7203 45.5139 0 0 0
16 1 32.7972 29.4627 45.3271 0 0 0
17 1 33.1185 28.7231 44.0252 0 0 0
18 1 34.6455 28.5193 43.9285 0 0 0
19 1 35.0185 27.7799 42.6333 0 0 0
43 6 33.1557 28.8678 46.1713 0 0 0
44 6 32.611 27.7541 44.0194 0 0 0
45 6 32.7654 29.3128 43.1741 0 0 0
46 6 35.1473 29.4925 43.9463 0 0 0
47 6 34.9925 27.9376 44.789 0 0 0
48 6 34.5164 26.8079 42.6169 0 0 0
20 1 36.5439 27.5733 42.5417 0 0 0
50 6 37.0457 28.5459 42.5603 0 0 0
51 6 36.8858 26.9912 43.4032 0 0 0