ITEM: TIMESTEP
0
ITEM: NUMBER OF ATOMS
122
ITEM: BOX BOUNDS pp pp pp
0.0000000000000000e+00 6.0000000000000000e+01
0.0000000000000000e+00 6.0000000000000000e+01
0.0000000000000000e+00 6.0000000000000000e+01
ITEM: ATOMS id type xu yu zu vx vy vz
13 3 29.6889 31.1166 47.4242 -0 -0 -0
41 6 28.8739 30.9458 46.8283 -0 0 -0
2 1 22.9473 32.3942 53.3578 0 0 0
32 6 22.7087 34.5374 53.7253 0 0 0
35 6 22.1869 32.562 52.59 -0 -0 -0
3 1 24.2717 31.9314 52.727 0 -0 0
4 2 25.3634 32.5757 53.5095 -0 -0 -0
5 3 26.6874 32.5509 52.9295 0 -0 -0
6 3 27.6347 33.5862 53.1409 -0 -0 -0
7 3 28.8767 33.6018 52.4789 -0 0 -0
8 3 29.2249 32.5859 51.5578 0 0 -0
12 3 29.5097 31.7942 48.6411 0 0 -0
29 3 28.3504 31.4746 51.4694 -0 -0 0
30 3 27.1195 31.455 52.144 0 -0 -0
31 1 24.7949 33.9085 53.8481 0 0 -0
36 6 24.3385 30.8419 52.7807 -0 0 -0
37 6 24.3086 32.2391 51.6752 0 -0 -0
38 6 27.4272 34.3575 53.7756 -0 0 -0
39 6 29.5117 34.386 52.6521 -0 0 -0
40 6 28.5674 32.1189 48.8685 0 -0 0
65 6 28.6048 30.6528 50.9154 0 0 0
66 6 26.5345 30.6251 52.0414 0 -0 -0
67 6 24.9272 34.6118 53.0171 0 -0 0
1 1 23.2935 33.6933 54.1015 0 -0 -0
34 6 22.5782 31.6427 54.0619 -0 0 -0
33 6 23.1023 33.5795 55.1724 -0 -0 -0
68 6 25.2678 34.3199 54.7433 -0 -0 -0
76 1 52.3068 28.9928 3.35301 0 0 0
77 1 51.0773 29.8485 2.93942 0 0 0
78 1 53.2565 28.686 2.16293 -0 0 0
99 6 51.9587 28.0495 3.78283 -0 -0 -0
100 6 52.8733 29.5287 4.11839 -0 -0 -0
101 6 50.5699 29.3476 2.10992 0 0 -0
103 6 52.7069 28.134 1.39479 -0 -0 0
104 6 53.5905 29.6312 1.72642 0 0 0
109 6 49.6984 29.0921 4.44006 0 0 0
74 1 57.8867 29.5008 3.10402 0 0 -0
79 1 56.8919 29.7564 1.94012 -0 0 -0
82 1 54.4919 27.8522 2.5953 -0 0 0
83 3 56.5559 28.5098 1.21253 -0 -0 -0
85 3 55.4645 27.6668 1.4927 0 0 0
94 6 55.9378 29.7286 5.26958 0 0 -0
95 6 57.488 28.7336 3.77072 -0 0 -0
96 6 58.8135 29.1026 2.67949 -0 0 0
111 6 54.9799 28.3248 3.44825 -0 -0 0
112 6 54.158 26.8659 2.92923 -0 0 -0
113 6 57.1764 28.2331 0.445943 -0 -0 0
116 6 55.3277 26.8586 0.878541 -0 0 -0
70 4 52.935 29.3273 9.58587 0 0 -0
107 6 54.0711 29.63 7.06151 -0 -0 0
60 6 40.2642 23.8882 38.3236 0 0 -0
62 7 42.4431 23.9725 37.0211 -0 -0 -0
49 6 34.6815 28.3287 41.713 -0 0 -0
21 1 36.9568 26.7976 41.1886 0 -0 -0
22 1 38.4873 26.5824 41.083 0 0 -0
23 1 38.8681 25.8362 39.7796 -0 -0 -0
24 1 40.3951 25.6082 39.6493 -0 0 -0
25 1 40.7571 24.863 38.3436 0 0 0
52 6 36.4559 25.8254 41.1679 -0 0 -0
53 6 36.6159 27.3776 40.3261 0 0 0
54 6 38.9897 27.5539 41.103 0 0 0
56 6 38.3599 24.8676 39.7635 0 0 0
57 6 38.5197 26.4191 38.922 0 0 -0
58 6 40.9051 26.5757 39.6629 0 0 -0
59 6 40.7452 25.0233 40.5047 0 -0 0
61 6 40.4243 25.4439 37.4801 0 -0 -0
55 6 38.8295 26.0018 41.9447 -0 -0 0
26 5 42.5406 24.6116 38.2186 0 0 0
15 5 31.0308 29.777 45.5256 0 0 0
16 1 32.7956 29.4674 45.3115 -0 0 -0
17 1 33.1027 28.7099 44.004 -0 0 0
18 1 34.6304 28.489 43.8722 0 0 -0
19 1 35.0214 27.7472 42.5748 0 -0 0
43 6 33.151 28.8732 46.157 -0 0 0
44 6 32.5886 27.7443 44.0106 0 -0 0
45 6 32.7388 29.2915 43.1521 -0 0 -0
46 6 35.1339 29.4605 43.8877 -0 0 0
47 6 34.9817 27.9092 44.7312 0 0 0
48 6 34.5223 26.7743 42.5534 0 -0 -0
20 1 36.5546 27.5414 42.4839 -0 -0 0
50 6 37.0516 28.516 42.5079 -0 -0 -0
51 6 36.893 26.964 43.3496 -0 -0 0
81 1 50.0319 30.0654 4.06965 -0 -0 0
84 1 50.5402 30.9224 5.26011 -0 -0 0
102 6 51.4187 30.822 2.57629 0 -0 0
110 6 49.1634 30.5654 3.63075 -0 -0 -0
114 6 51.3748 30.4125 5.74441 0 0 -0
115 6 50.8961 31.887 4.88825 0 -0 -0
120 6 48.601 31.703 5.88837 0 -0 0
71 1 57.0899 31.4803 4.68556 0 -0 0
72 1 58.2518 30.764 3.9363 0 -0 0
73 1 56.3589 30.6137 5.74815 -0 -0 0
89 6 56.3662 31.8556 3.95937 0 -0 -0
90 6 57.5144 32.352 5.19225 -0 0 0
91 6 58.721 31.4899 3.26587 0 -0 0
92 6 59.0076 30.4768 4.67299 0 -0 -0
98 6 54.4704 31.6837 5.70651 -0 -0 -0
105 6 57.3412 30.4588 1.23282 -0 0 -0
106 6 55.9805 30.221 2.31464 0 0 -0
69 8 51.626 31.0999 9.97453 -0 0 -0
86 1 53.3658 31.2888 8.27552 -0 -0 -0
87 1 49.4503 31.1748 6.32637 -0 0 0
88 3 52.643 30.5122 9.30416 -0 -0 -0
117 6 52.6318 31.633 7.5453 -0 -0 0
118 6 53.791 32.1677 8.76472 -0 0 0
119 6 49.1024 30.2289 6.74651 -0 0 -0
121 6 49.8579 31.7842 7.13551 -0 0 -0
122 7 51.1299 30.6074 10.6647 -0 0 -0
75 1 55.2066 31.378 6.45593 -0 0 -0
80 1 54.497 30.5186 7.53739 0 0 0
93 6 57.086 30.2838 6.49544 -0 -0 0
97 6 55.6108 32.2796 6.92448 -0 -0 0
108 6 55.2373 30.1904 8.27295 -0 -0 0
14 3 30.9654 30.6776 47.0276 0 0 -0
27 3 32.0676 30.989 47.8593 0 -0 0
42 6 33.3124 30.4297 45.292 -0 -0 -0
63 6 33.0171 30.7175 47.6125 0 0 -0
9 3 30.4102 32.6677 50.7818 0 -0 0
10 4 31.3634 33.3476 51.239 0 -0 -0
11 3 30.5958 32.0465 49.5191 0 0 -0
28 3 31.887 31.6779 49.0716 0 0 -0
64 6 32.7128 31.8809 49.6422 -0 0 -0
ITEM: TIMESTEP
1000
ITEM: NUMBER OF ATOMS
122
ITEM: BOX BOUNDS pp pp pp
0.0000000000000000e+00 6.0000000000000000e+01
0.0000000000000000e+00 6.0000000000000000e+01
0.0000000000000000e+00 6.0000000000000000e+01
ITEM: ATOMS id type xu yu zu vx vy vz
13 3 29.6588 30.822 47.1921 -0.00130762 0.00543128 -0.0044566
68 6 25.1963 30.9619 54.8411 -0.00662597 -0.00570655 -0.00416018
2 1 23.4051 33.7964 54.7116 -0.000699697 -0.00166951 0.00139956
32 6 23.6989 32.5311 56.481 0.010527 0.0058701 0.00511329
35 6 23.9543 34.5912 55.2262 -0.0062161 0.00180001 0.00196568
3 1 23.9632 33.6098 53.2913 0.00368976 0.00188375 0.00257732
4 2 24.9916 32.557 53.4376 0.000890537 -0.00110942 0.00114848
5 3 26.1918 32.6925 52.7142 0.000709202 -0.0015926 0.000601146
6 3 27.1197 33.7334 52.9163 0.00170746 -0.0029987 0.00221932
7 3 28.2943 33.7874 52.1401 6.91224e-05 -0.00104447 -0.000127845
8 3 28.5926 32.8128 51.1413 -0.00207104 0.00111616 -0.00278007
12 3 29.2458 31.604 48.2892 -0.00154894 0.00607921 -0.00498442
29 3 27.6541 31.7542 51.0076 -0.003384 0.00261854 -0.00526831
30 3 26.4617 31.7128 51.7486 -0.0018319 0.00107131 -0.00285615
31 1 25.0545 32.0459 54.8241 -0.000320705 -0.00496871 -0.000385875
36 6 23.1831 33.2397 52.6208 0.00474161 0.0068083 -0.00135087
37 6 24.349 34.5548 52.897 0.00690084 0.00280267 0.0075638
38 6 26.9391 34.4482 53.6246 0.00353594 -0.00468015 0.00437109
39 6 28.9356 34.5645 52.3181 0.000837327 -0.00188713 0.000668771
40 6 28.2458 31.78 48.3846 -0.00130707 0.0090743 -0.00698251
65 6 27.8337 30.9588 50.3988 -0.00584317 0.00463609 -0.00833358
66 6 25.799 30.9473 51.5999 -0.00247113 0.00213182 -0.00379249
67 6 25.8538 32.53 55.3947 0.00423278 -0.0116166 -0.00102585
1 1 23.682 32.4439 55.3918 0.00362357 0.001098 0.00542302
34 6 22.34 34.0404 54.7032 -0.00179431 -0.00650397 -0.00167331
33 6 22.9239 31.7105 55.0979 0.00128866 0.000515543 0.0137382
9 3 29.8064 32.8828 50.3872 -0.00187921 0.00126035 -0.00237236
41 6 28.9467 30.4073 46.5846 -0.00100508 0.0080893 -0.00655853
76 1 52.3826 28.944 3.49442 -0.000136557 0.000485499 0.000376695
77 1 51.1232 29.805 3.19896 -0.000545365 -8.6827e-05 0.000412646
78 1 53.2932 28.7913 2.24537 -0.000234711 0.000658264 0.000348077
99 6 52.0677 27.9519 3.82974 0.000367943 0.000436558 0.000732175
100 6 52.9587 29.4102 4.29698 -0.000225401 0.000885459 0.000270727
101 6 50.6107 29.3797 2.33106 -0.000269071 -0.000185352 0.000252706
103 6 52.7113 28.3539 1.4287 -0.000352475 0.000135895 0.000611577
104 6 53.6215 29.7856 1.93021 -0.00065199 0.000697668 4.71589e-05
109 6 49.8114 28.8575 4.65153 0.000267156 -0.00112952 0.000458249
74 1 57.8766 29.3961 3.07422 0.000426838 -0.000212904 -7.76171e-05
79 1 56.9169 29.8458 1.93941 8.03449e-05 0.000185918 0.000359744
82 1 54.5324 27.8964 2.50509 -0.00016787 0.000903973 0.000361495
83 3 56.5079 28.7135 1.07602 -0.000420596 0.000706461 1.05422e-05
85 3 55.435 27.8397 1.33001 -0.000460057 0.000910963 0.000195744
94 6 55.8038 29.8149 5.11929 0.0014707 -0.00107883 0.00107903
95 6 57.4008 28.6277 3.68646 0.000605672 -0.000480442 -0.000306474
96 6 58.758 28.9362 2.61715 0.000413252 -3.65272e-05 -0.000509369
111 6 55.0685 28.2574 3.38097 -9.91375e-05 0.000938897 0.000293995
112 6 54.1992 26.8806 2.73389 -7.20632e-05 0.000831822 0.000316722
113 6 57.0632 28.5415 0.232883 -0.000479713 0.00061639 0.000135692
116 6 55.2493 27.1134 0.632393 -0.000668329 0.00114399 0.00013867
70 4 52.3903 29.4475 9.00871 0.000326141 0.000293428 -8.55287e-05
107 6 53.8729 29.8925 6.77261 0.00109285 -0.000828151 -0.000351203
81 1 50.0919 29.8733 4.35906 -0.000559911 -0.000908189 0.000397619
108 6 55.0343 29.9796 8.10483 0.000127641 -4.13988e-05 0.000663773
119 6 49.1503 29.8268 7.03287 -0.001675 -0.00142735 -0.00057948
93 6 57.0096 29.9696 6.40558 0.00146779 0.000254428 0.000841971
60 6 40.1001 23.8976 37.9137 -0.00204544 0.00214857 -0.00145424
62 7 42.1669 23.8369 36.4386 -0.00234226 0.000459943 -0.00150801
49 6 35.3212 28.3208 42.0426 0.000328452 -0.00410294 0.00178998
21 1 37.477 26.8184 41.3498 0.00254856 -0.00019457 0.00224374
22 1 38.9584 26.4245 41.1278 0.0026127 0.000528732 0.000901204
23 1 39.1525 25.8182 39.7135 0.00142186 0.000992263 0.00051038
24 1 40.607 25.3701 39.4358 0.00076925 -0.000356397 -0.000388268
25 1 40.7449 24.7738 38.0157 -0.000404533 0.000881901 -0.00099305
52 6 36.8606 25.9215 41.2342 0.0029928 -0.000782975 0.00343528
53 6 37.183 27.5308 40.5727 0.00111768 -0.000627772 0.00223106
54 6 39.5908 27.31 41.2356 0.00217806 0.000753258 0.0010664
56 6 38.4925 24.9523 39.6033 0.00041983 0.00171984 0.000390663
57 6 38.8633 26.5627 38.9653 0.00160762 0.00206701 0.00145189
58 6 41.2748 26.2308 39.5332 0.00136375 -0.000928731 0.000560882
59 6 40.9025 24.6179 40.1729 4.33378e-06 -0.00114496 -0.000868072
61 6 40.4536 25.5154 37.268 0.000413657 0.00207905 -0.000125049
55 6 39.2552 25.692 41.8835 0.00321587 0.000707518 0.000747384
26 5 42.449 24.2758 37.6957 -0.00137102 -0.00146425 -0.00114047
51 6 37.5135 26.7744 43.5271 0.00412698 0.00194293 0.00259019
16 1 33.2351 29.4983 45.4758 -0.000375853 0.000246094 0.000282623
17 1 33.7038 28.6064 44.2973 0.000386826 -0.00122443 0.00160375
18 1 35.2504 28.4481 44.1975 0.000720926 0.000366538 0.00129346
19 1 35.6594 27.7171 42.8904 0.00197847 -0.00186869 0.00280381
43 6 33.5724 29.0587 46.4165 0.000421675 0.00209563 0.000963308
44 6 33.2548 27.6148 44.4029 0.00142398 -0.00149665 0.00323675
45 6 33.3299 29.0468 43.3685 -0.000571442 -0.00336892 0.00106182
46 6 35.7203 29.4354 44.2111 -0.000747491 0.00111987 -0.000821044
47 6 35.6136 27.883 45.0604 0.00165161 0.00294889 0.00264062
48 6 35.1351 26.7575 42.8483 0.00357248 -0.00290649 0.00534935
20 1 37.1818 27.4516 42.7354 0.00253452 0.000420826 0.00207546
50 6 37.7321 28.3915 42.8296 0.000995501 0.0013184 0.00121176
15 5 31.4245 29.6501 45.5058 -0.000644168 -0.00165873 0.00143361
97 6 55.9594 32.1056 7.14524 0.0005678 -9.62054e-05 0.000207681
84 1 50.5798 30.6527 5.60848 -0.00121577 -0.000456647 0.000346774
102 6 51.4316 30.8196 2.93206 -0.000930123 0.000120736 0.000668719
110 6 49.1933 30.3651 3.97531 -0.00103164 -0.00162545 0.000374529
114 6 51.4221 30.1251 6.05912 -0.000844658 0.000332963 0.000526115
115 6 50.9185 31.648 5.30888 -0.00203391 -0.000201431 0.000139661
120 6 48.6157 31.3395 6.26623 -0.0014493 -0.000878048 7.46411e-05
71 1 57.2846 31.3598 4.75946 0.00092822 -0.000550962 0.000281161
72 1 58.3698 30.542 4.00176 0.000816157 -0.000629847 0.00020597
73 1 56.3794 30.5296 5.70912 0.00111824 -0.000417699 0.000607922
89 6 56.6621 31.8944 4.03808 0.000990559 -0.000466057 0.000317064
90 6 57.8031 32.116 5.35578 0.00114176 -0.000473198 0.000171532
91 6 58.9577 31.2393 3.39836 0.00111145 -0.000644802 0.000436922
92 6 59.0494 30.1094 4.74158 0.000738433 -0.00100412 4.06648e-05
98 6 54.791 32.0053 5.81651 0.000974117 -0.000696877 -0.00017962
105 6 57.4236 30.5905 1.31995 0.000166039 0.000228669 0.00040688
106 6 56.0305 30.324 2.35709 0.000441374 0.000316994 0.000673358
69 8 51.6015 31.3768 9.82131 0.00015242 0.000861963 -0.00132805
86 1 53.4436 31.4527 8.22341 -0.000141464 -6.69395e-05 -0.00145198
87 1 49.4752 30.8071 6.67827 -0.00156635 -0.00116924 9.7246e-05
88 3 52.4623 30.6976 9.02967 7.84515e-05 0.00033093 -0.000969476
117 6 52.8831 32.0935 7.54005 -0.000433685 -0.000895838 -0.00211064
118 6 54.0103 32.0936 8.90225 -0.000690926 0.000743884 -0.00176262
80 1 54.4382 30.5779 7.4095 0.000573086 -0.000401424 -0.000182068
121 6 49.8579 31.3754 7.52729 -0.0018528 -0.0016398 0.000626718
122 7 50.9391 30.899 10.3661 0.000338393 0.00117731 -0.00068619
75 1 55.3907 31.4153 6.51551 0.00091243 -0.000404578 0.000226671
14 3 31.0266 30.6288 46.9088 -0.00105011 0.0014503 -0.00103743
27 3 31.9681 31.2572 47.7491 -0.00102908 -0.00102497 0.000648515
42 6 33.6687 30.4945 45.3638 -0.00179547 0.000784803 -0.00149689
63 6 32.9681 31.1731 47.5715 -0.0010797 -0.00408224 0.00302701
64 6 32.2812 32.4238 49.4466 -0.00137769 -0.00315086 0.00172166
10 4 30.6876 33.6546 50.8468 -0.0010053 -0.00102459 -0.000383433
11 3 30.1754 32.1686 49.2032 -0.00171502 0.00245649 -0.00293069
28 3 31.5492 32.0093 48.8635 -0.0013766 -0.000708874 0.000140356
ITEM: TIMESTEP
2000
ITEM: NUMBER OF ATOMS
122
ITEM: BOX BOUNDS pp pp pp
0.0000000000000000e+00 6.0000000000000000e+01
0.0000000000000000e+00 6.0000000000000000e+01
0.0000000000000000e+00 6.0000000000000000e+01
ITEM: ATOMS id type xu yu zu vx vy vz
13 3 29.6455 30.9932 47.282 0.000631083 0.00216084 -0.00465971
12 3 29.3009 31.811 48.3695 0.000869447 -0.00107359 -0.00236993
40 6 28.3093 31.899 48.5971 0.000828984 -0.002879 -0.0013514
41 6 28.9033 30.4698 46.8084 2.17374e-05 0.00411631 -0.00575883
36 6 23.9637 33.0642 52.2554 0.00709062 -0.0165727 -0.00452708
3 1 24.3803 33.3489 53.2271 0.000764389 -0.00487231 -0.00522591
4 2 25.4846 32.4457 53.6059 0.00442109 0.00572827 0.00982604
5 3 26.703 32.491 52.9166 0.00269279 -0.000141291 0.00517829
6 3 27.5375 33.6014 53.1342 0.00265036 0.000974053 -0.000839992
7 3 28.6291 33.8167 52.2829 0.00320087 -0.00338502 -0.000811358
8 3 28.9551 32.8946 51.2501 0.00060622 -0.00449787 -0.000496692
29 3 28.2272 31.6768 51.2192 -0.000878855 -0.00370652 0.00229009
30 3 27.0756 31.4992 51.996 0.00296378 -0.00439032 0.00924114
37 6 24.7023 34.3945 53.1983 -0.00658492 -0.00285862 -0.0142699
38 6 27.32 34.2781 53.8707 0.003247 0.00489558 -0.00399852
39 6 29.1661 34.6774 52.4179 0.00530258 -0.00451477 -0.00130965
65 6 28.5122 30.8936 50.6326 -0.00441258 -0.00372794 -0.000176055
66 6 26.5088 30.6567 51.8825 0.0048003 -0.00666165 0.0148519
67 6 25.7981 30.8289 54.9649 -0.00401749 -5.86621e-05 0.00588337
2 1 23.3686 33.1096 54.3671 -0.00198954 -0.00143991 -0.00674088
35 6 23.2632 34.0023 54.9899 -0.00444325 0.00136558 -0.0113616
1 1 23.9227 31.9292 55.2059 -0.00275277 0.00325816 -1.46996e-05
34 6 22.3891 32.8575 53.9521 -0.000657958 -0.00445558 -0.00795834
33 6 23.1385 31.2127 55.4621 -0.00180873 0.00269851 0.00223828
68 6 24.5895 30.5207 53.6733 0.000528912 0.00540631 0.000117537
32 6 24.3689 32.3053 56.1316 -0.00425356 0.00841849 -0.00150982
31 1 25.0122 31.2721 54.3476 -0.000321153 0.00314062 0.00374407
76 1 52.1235 29.0109 3.38081 0.000704865 7.87492e-05 -0.000326499
77 1 50.803 29.7987 3.15444 0.000444144 -0.000310694 0.000111977
78 1 53.0775 29.0484 2.1551 -0.000558977 -0.000216559 -0.00109349
99 6 51.8843 27.967 3.60113 0.000935383 -2.76915e-05 4.24795e-05
100 6 52.6411 29.4305 4.24714 0.00125016 0.000505376 -0.000856502
101 6 50.3859 29.5098 2.18557 0.00015514 0.000359758 -1.19171e-05
103 6 52.5752 28.5905 1.29783 -0.000841782 -0.00125699 -0.000287091
114 6 50.957 29.6685 6.01427 0.00155692 -0.0006685 -0.000130984
109 6 49.5433 28.4553 4.30759 0.00144403 -0.00111542 7.72949e-05
81 1 49.7115 29.533 4.22958 0.00086699 -0.000897263 0.000380374
74 1 57.9612 29.2021 3.12087 -0.000735543 -0.000980794 0.000953469
79 1 57.0862 29.9394 2.07135 -0.000512096 -9.90077e-06 0.00141755
82 1 54.4095 28.3011 2.42902 -0.000452443 0.000216167 -0.00136867
83 3 56.4991 29.0027 1.08633 -0.00034211 0.00156602 1.16321e-05
85 3 55.296 28.2899 1.24095 -0.000501546 0.00176938 -0.00123888
94 6 56.0478 29.7221 5.20588 -0.000811941 0.000300485 -0.000832915
95 6 57.3561 28.4655 3.65344 -0.000847592 -0.0013883 0.000542164
96 6 58.7415 28.6474 2.59032 -0.00100788 -0.000620361 0.000558424
111 6 54.8998 28.759 3.28637 -0.000792446 -0.000704987 -0.000615334
112 6 54.1984 27.2631 2.69855 -0.000308239 -0.000259161 -0.0028225
113 6 57.022 28.8491 0.219159 0.000150654 0.00235158 4.16885e-06
116 6 55.0023 27.703 0.45486 -0.000343246 0.00255177 -0.00210371
70 4 52.5206 29.8401 9.18449 -0.00113314 0.000951921 -0.00199221
107 6 54.0517 29.9849 6.74395 -0.000537622 0.000743046 0.000305904
119 6 48.7552 28.7383 6.76226 0.0010948 -0.00234062 -0.000778611
93 6 57.1792 29.6743 6.56412 -0.00184682 -0.000592174 0.000172105
92 6 59.2377 29.5023 4.8406 -0.00138032 -0.00299123 0.00187343
87 1 48.9067 29.8145 6.65829 0.00166192 -0.00214008 0.0005934
108 6 55.0901 29.9778 8.18111 -2.52204e-05 0.00117114 -0.000278708
62 7 43.2667 24.0973 37.8408 0.00229756 -0.00146789 0.00598647
60 6 40.8047 23.6617 38.3909 -0.000430696 0.00163304 0.000617837
21 1 36.7046 26.1214 41.1852 -0.000657391 0.000431016 0.00281343
22 1 38.2256 26.0495 40.8775 -0.000855599 0.00242108 0.000718476
23 1 38.7634 25.167 39.7101 -0.000986559 3.50456e-05 0.00197223
24 1 40.3183 25.3254 39.7048 -0.00114837 0.00302791 -0.00142532
25 1 41.119 24.6958 38.5443 0.00088046 0.00125465 0.000643097
52 6 36.3966 25.213 41.7108 0.0019445 0.00132794 0.00553444
53 6 36.1421 26.1857 40.251 -0.00191276 -0.00420671 0.00353633
54 6 38.559 27.0689 40.6602 -0.00348361 0.0027095 -0.00255704
56 6 38.491 24.1196 39.8646 0.00140647 -3.84728e-05 0.00541732
57 6 38.3474 25.5048 38.7576 -0.00334838 -0.00327845 0.00188832
58 6 40.5767 26.3893 39.7114 -0.00386355 0.0037015 -0.00474735
59 6 40.6878 24.892 40.6398 0.000552058 0.00697753 -0.00026521
61 6 40.9583 25.2597 37.6221 0.00422235 0.0008593 -0.000242927
55 6 38.7192 25.7374 41.8034 0.00110869 0.00564854 0.000939541
26 5 42.8823 24.7229 38.9866 -5.93774e-05 -0.00117901 0.00507269
49 6 34.3159 27.6641 41.6305 -0.00327501 -0.00349633 0.00168165
16 1 32.952 29.9481 44.9605 -0.00229971 0.00299796 -0.00468856
17 1 33.2158 28.8737 43.8708 -0.00238881 -0.000882216 -0.000425871
18 1 34.7138 28.7146 43.4993 -0.00257018 0.00197705 -0.00131993
19 1 34.9413 27.528 42.517 -0.00198912 0.000117215 0.00123388
43 6 33.59 29.7538 45.825 -0.00113079 0.00669907 -0.0050523
44 6 32.8531 27.9079 44.2361 0.000838611 -0.000493747 0.00385477
45 6 32.6476 29.1296 42.9715 -0.00469702 -0.00680219 -0.000843595
46 6 35.0682 29.6434 43.0442 -0.00533327 0.00160715 -0.00426923
47 6 35.296 28.5347 44.4075 -0.000837836 0.00498371 -0.00184038
48 6 34.6338 26.6003 43.0071 0.00055403 0.000682789 0.0038359
15 5 31.2191 29.8372 45.4676 -0.00108812 0.00185519 -0.00290289
51 6 37.0491 27.3451 42.9528 -0.000937558 0.00581421 -0.00114704
20 1 36.4141 27.3823 42.0626 -0.00243612 0.00228733 -0.00056556
50 6 36.6828 28.2796 41.4965 -0.00469237 0.000847599 -0.00431155
84 1 50.0302 30.1063 5.63675 0.00111374 -0.000948434 0.00034345
102 6 51.0198 30.8696 3.11217 0.000134723 -0.000177969 0.000600787
110 6 48.7784 29.9849 3.88056 0.00064159 -0.00121528 0.000844251
115 6 50.1691 31.1884 5.56562 0.000251728 -0.000876117 0.000923441
71 1 57.7445 31.0646 4.99067 0.000579323 -0.00117696 0.000963131
72 1 58.663 30.1299 4.15351 -0.000189673 -0.0021092 0.00151402
73 1 56.6776 30.3344 5.85131 -0.000914663 -2.24016e-05 -0.000249655
89 6 57.252 31.774 4.32172 0.0022222 -3.70141e-05 0.000682726
90 6 58.3837 31.6483 5.65939 0.000987813 -0.00265542 0.00162451
91 6 59.3809 30.7566 3.61659 0.000913939 -0.00298354 0.00193661
75 1 55.7624 31.3252 6.6174 -0.000980409 0.000647815 -0.00130871
98 6 55.3059 32.012 5.8986 -0.00161149 -0.000577069 -0.00203654
105 6 57.71 30.6589 1.53416 -0.000304096 0.000427515 0.00254109
106 6 56.2886 30.5053 2.55388 -0.000748241 -0.000208691 0.00194673
80 1 54.636 30.6171 7.41897 -0.000299281 0.000887058 -0.000234824
120 6 47.9699 30.2765 6.34059 0.00146895 -0.00115931 0.00222104
69 8 51.7536 31.9099 9.55879 0.00114425 0.00100585 0.00175288
86 1 53.6832 31.6382 8.10178 -0.000164331 0.000996602 -0.000364161
104 6 53.2991 30.0902 1.90558 -0.00117928 -0.000237962 -0.00217898
88 3 52.6313 31.0684 8.96735 1.49872e-05 0.0011257 -7.02999e-05
117 6 53.1845 32.2232 7.32551 -0.000354282 0.000502388 -0.000484706
121 6 49.1819 30.2214 7.63326 0.00234665 -0.0039018 0.00119654
122 7 51.0429 31.5632 10.1417 0.00134599 0.000848158 0.00152726
97 6 56.3755 31.9132 7.30587 -0.00107523 0.00194161 -0.002041
118 6 54.2718 32.3237 8.71524 1.19029e-05 0.00133224 -0.000681317
14 3 30.9751 30.9076 46.831 0.000861367 0.00227858 -0.00315041
27 3 31.9545 31.6864 47.4847 0.00088962 0.00116379 -0.00244642
42 6 33.1588 30.9472 44.5712 -0.00458616 0.00179967 -0.00847593
63 6 32.924 31.6739 47.1675 0.00161038 -4.86717e-05 -0.000954116
64 6 32.3492 33.021 49.0485 -0.000374145 0.00424549 -0.00438167
10 4 30.7736 34.1154 50.6666 0.00242595 -0.00669813 0.000143163
11 3 30.2845 32.5044 49.1161 0.000502455 -0.00155771 -0.00245725
28 3 31.6046 32.4857 48.5945 0.000284525 0.00236594 -0.00389689
9 3 29.9993 33.1844 50.3337 0.000570566 -0.00475127 -0.000816645
ITEM: TIMESTEP
3000
ITEM: NUMBER OF ATOMS
122
ITEM: BOX BOUNDS pp pp pp
0.0000000000000000e+00 6.0000000000000000e+01
0.0000000000000000e+00 6.0000000000000000e+01
0.0000000000000000e+00 6.0000000000000000e+01
ITEM: ATOMS id type xu yu zu vx vy vz
13 3 29.2516 30.8664 46.7986 -0.00843205 0.00450792 -0.00318272
41 6 28.3356 30.5457 46.4748 -0.00860705 0.00902471 -0.00627969
34 6 23.5072 30.7854 54.1516 0.00499356 0.00226903 -0.000715921
12 3 29.3084 31.6569 47.9611 -0.00529296 0.004391 -0.00323412
40 6 28.413 31.9306 48.3697 -0.00469594 0.008497 -0.00442311
36 6 25.0316 31.1531 52.4768 0.0044457 -0.000101461 0.000877611
3 1 24.9683 32.0383 53.1131 0.006941 -7.23441e-05 0.0012452
4 2 26.2954 32.4739 53.628 0.00822369 -0.00509716 -0.00030307
5 3 27.3898 32.4515 52.709 0.00763068 -0.00711491 0.00256247
6 3 28.257 33.5636 52.6977 0.00760204 -0.00692687 0.00329782
7 3 29.3579 33.6015 51.8155 -0.000608642 -0.000462911 -0.00462093
8 3 29.5431 32.5991 50.8269 -0.00542311 0.00161664 -0.00601127
29 3 28.6992 31.4602 50.9039 -0.00277821 -0.000364001 -0.00332939
30 3 27.6542 31.3717 51.8332 0.0031797 -0.00721731 0.00266829
37 6 24.4968 32.8402 52.5393 0.0112327 0.00199913 0.00108203
38 6 28.0946 34.3424 53.3425 0.011765 -0.00976129 0.0076003
39 6 29.9908 34.4045 51.8657 -0.00288585 0.00141666 -0.00745911
65 6 28.8646 30.6407 50.3148 -0.00296942 0.00115575 -0.00575446
66 6 27.1022 30.5125 51.872 0.00577918 -0.00909417 0.00545773
68 6 27.0782 30.7783 54.6788 -0.0110818 -0.0205981 -0.0129715
2 1 24.1289 31.6637 54.3497 0.0036598 0.00344283 -0.000946439
35 6 23.4759 32.4964 54.6276 0.00274352 0.00408878 -0.00493806
1 1 25.1512 31.3819 55.47 0.0032555 0.00835843 0.000852616
33 6 25.0994 30.3385 55.798 -0.00598124 0.0142845 0.018197
67 6 27.1298 32.3217 55.5629 0.018871 -0.0238706 -0.00865058
32 6 24.9474 32.0284 56.3305 0.0109427 0.0238638 -0.00932412
31 1 26.5395 31.7129 54.8705 0.00507611 -0.0125354 -0.00664761
76 1 52.0207 28.942 3.17025 0.000100405 0.000816776 0.000770114
79 1 57.0162 29.865 2.23092 -0.000302612 -5.86616e-05 0.000178108
78 1 53.0503 29.1595 2.03151 -0.000414566 -0.0013715 -0.000195222
99 6 51.5647 27.9553 3.04713 -0.000208111 0.000908923 0.00294838
100 6 52.5512 28.9546 4.12504 0.000657684 0.0021661 0.000480312
120 6 48.266 30.0755 6.6131 0.00125815 0.00518653 0.00163111
103 6 52.5752 28.9365 1.07117 -0.000860303 -0.00466745 0.000686353
109 6 49.3347 28.7426 3.97404 -0.000284739 0.00174198 -0.00070611
81 1 49.7732 29.7121 4.22631 0.000122977 0.00126692 -0.000211551
121 6 49.4309 29.2935 7.69735 -0.00187431 -0.00263584 -0.000604151
74 1 57.8592 29.0509 3.24984 -0.000176835 0.000456439 0.000317493
72 1 58.6265 29.9203 4.2893 0.000388057 0.000404709 0.000132803
82 1 54.2965 28.259 2.23082 0.000420273 0.000164606 0.00216683
83 3 56.4901 29.0331 1.12451 -0.000212776 -0.000610362 0.000624712
85 3 55.2528 28.3643 1.10577 0.000102378 -0.00111727 0.00171077
94 6 56.0223 29.7471 5.29073 -0.000644429 0.00117695 -0.00220972
95 6 57.212 28.3462 3.77631 0.000195466 0.000526112 0.000515477
96 6 58.599 28.4567 2.70496 -0.0003051 0.000160012 -3.4435e-05
111 6 54.7762 28.52 3.17474 0.000255438 0.00214324 0.0018348
112 6 53.9838 27.2143 2.30981 0.00131093 0.000115195 0.00429442
113 6 57.0793 28.943 0.290977 -0.00100455 0.00030466 -0.000168522
116 6 54.9939 27.8897 0.235107 -0.000100869 -0.00220247 0.00228176
92 6 59.0983 29.2514 5.01456 -0.000157944 0.000169085 0.000249364
114 6 51.0114 28.9671 5.86246 -0.00263883 -0.0026862 -0.000479573
84 1 50.2172 29.7011 5.71428 -0.000457441 -0.000532708 -5.77235e-05
119 6 48.652 28.3523 6.4138 -0.00588125 0.00409037 -0.00301784
87 1 49.0621 29.3311 6.67051 -0.00182106 0.00169648 -0.000570712
93 6 57.071 29.7914 6.71196 -0.00183532 9.30908e-06 -0.00144513
70 4 52.6511 29.9695 9.21838 0.00327839 -0.000880075 -0.000164485
60 6 39.6272 24.3481 39.9934 0.00467742 0.00546629 -0.0036321
42 6 32.0553 28.4823 45.022 0.00502638 0.00493914 0.0104785
21 1 36.6699 27.9564 41.8242 0.00280137 0.00711682 -0.00319697
22 1 38.1701 27.6013 42.0339 0.00189759 0.00200343 -0.00184471
23 1 38.559 26.2269 41.4252 -0.00152349 0.00111306 -0.00303363
24 1 40.0859 25.8475 41.4966 -0.00214162 0.000256347 0.00272629
25 1 40.5271 24.8503 40.3528 0.00401172 0.000546609 0.00450839
52 6 36.105 27.3806 42.558 0.000615005 0.00505169 -0.00634847
53 6 36.3369 27.6502 40.8293 0.00529889 0.00986934 -0.00507641
54 6 38.7909 28.3647 41.5565 0.00430438 0.00177402 0.0009231
56 6 37.9731 25.4418 41.912 -0.00499869 0.00222538 -0.00528783
57 6 38.2596 26.2567 40.3738 0.00226428 0.0035184 -0.00402455
58 6 40.6959 26.7524 41.4192 -0.00124163 -0.00021903 0.00327451
59 6 40.288 25.3988 42.4714 -0.00518809 0.00110878 0.00375596
61 6 40.9037 25.4459 39.5177 0.012022 0.00123997 0.0086945
55 6 38.3989 27.6075 43.1038 0.000138982 -0.00149494 -0.00150734
50 6 36.9548 30.0109 41.1767 -0.00121475 0.00760437 0.000311052
62 7 41.3858 22.8455 39.4507 -0.00613352 -0.00731261 0.00744822
26 5 41.7212 23.4797 40.6086 -0.00324195 -0.00598142 0.00604839
20 1 36.4188 29.4833 41.9719 0.000569034 0.00641902 0.000489658
17 1 32.7782 29.7872 43.3935 -0.00213071 0.00026149 0.00257811
18 1 33.9941 29.0274 42.8111 -0.000471248 0.00357063 0.00179207
19 1 34.9284 29.9123 41.9225 -0.000199041 0.0066887 0.00449254
43 6 31.3978 28.1269 43.4282 0.00614151 -0.00673158 0.0120678
51 6 36.8379 29.8165 42.9257 0.00199387 0.00487219 9.18521e-05
16 1 31.6773 28.9367 44.1041 0.00368134 -0.00160871 0.00766395
46 6 34.5458 28.6374 43.6699 0.00059062 0.00458121 0.00146374
47 6 33.6469 28.1759 42.2187 0.00227712 0.00327423 0.000626191
48 6 34.574 29.8739 40.8886 -0.000635784 0.0105616 0.00460271
15 5 30.1465 29.8651 44.4424 0.00246087 -0.00219814 0.00046586
110 6 48.9912 30.4666 4.10356 0.00069005 0.00208292 -3.10489e-05
102 6 51.3532 30.9929 3.45903 0.000914416 0.000752538 0.00067404
115 6 50.6061 30.686 5.98733 0.00224727 -0.00175482 0.000708717
104 6 53.3703 30.2054 2.02211 -0.00149261 -0.00110112 -0.00322831
71 1 57.7967 30.9852 5.06377 0.000576304 0.00045167 0.000294561
97 6 56.3009 32.1679 7.13386 -0.000293687 0.000547404 -0.00229348
73 1 56.6381 30.399 5.91226 -0.000729859 0.000395016 -0.00137199
89 6 57.4012 31.7163 4.3557 0.0016038 0.00103802 0.000579685
90 6 58.4733 31.5234 5.73343 0.000648893 -0.00037714 0.00138528
91 6 59.4314 30.4432 3.76453 0.000757647 0.000347135 0.000415383
98 6 55.2316 32.0506 5.72281 -0.000756703 0.000726178 -0.0015699
105 6 57.6438 30.6476 1.79605 0.000140092 -0.000718791 -0.000901061
106 6 56.1893 30.3665 2.73718 0.000237604 0.000716069 -0.000407715
107 6 54.0365 30.1252 6.80069 -0.000349316 0.00147274 -0.000994497
69 8 51.6921 31.9629 9.55657 -0.00118901 -0.00314581 -0.000800349
86 1 53.6341 31.8313 8.07647 2.41806e-05 0.000605416 0.000182294
88 3 52.6435 31.1983 8.97322 0.000479511 -0.00100363 -0.000458807
117 6 53.0873 32.3626 7.29493 -0.000189699 0.0008555 0.000415189
80 1 54.6148 30.8257 7.4115 1.22269e-05 0.00105436 -0.000613625
122 7 51.0261 31.5613 10.1559 -0.00107843 -0.00466636 -0.000965674
118 6 54.1981 32.5631 8.65854 -0.000312996 0.000370681 0.000256603
75 1 55.7072 31.48 6.52573 -0.000588725 0.000704317 -0.00157993
108 6 55.1131 30.2541 8.20066 0.000291627 0.000320222 -0.00124584
77 1 50.9097 30.0242 3.21303 0.000346369 0.00125811 7.11402e-05
101 6 50.4612 30.1066 2.21891 0.00111045 0.00207905 -0.000109213
14 3 30.3964 30.5974 46.0329 -0.0071005 0.00147993 -0.00112518
27 3 31.6172 31.0873 46.5565 -0.00757872 0.00459084 -0.00528712
44 6 32.3022 30.3268 42.5715 -0.00547069 -0.00379527 0.00166812
63 6 32.4875 30.9246 46.0673 -0.00951963 0.00814028 -0.00871687
64 6 32.6009 32.1648 48.0794 -0.00527413 0.00157005 -0.00534032
10 4 31.5403 33.427 50.0988 -0.00275919 -0.00090304 0.00103983
11 3 30.5275 32.0824 48.54 -0.00416128 -0.000406069 -0.00225747
28 3 31.6865 31.8321 47.7603 -0.0055721 0.00171702 -0.00464172
9 3 30.5462 32.7177 49.8179 -0.00394701 0.00187679 -0.0035207
45 6 33.1779 30.5367 44.0704 -0.00193391 0.0035141 -0.00185592
49 6 34.8789 30.9572 42.2432 0.000314133 0.0054793 0.00853175
ITEM: TIMESTEP
4000
ITEM: NUMBER OF ATOMS
122
ITEM: BOX BOUNDS pp pp pp
0.0000000000000000e+00 6.0000000000000000e+01
0.0000000000000000e+00 6.0000000000000000e+01
0.0000000000000000e+00 6.0000000000000000e+01
ITEM: ATOMS id type xu yu zu vx vy vz
66 6 28.1893 29.3101 51.2707 0.0144987 -0.00168764 -0.0066061
68 6 29.0838 29.7202 55.2523 -0.0107187 -0.0079755 0.00498618
36 6 26.359 29.3761 54.9604 0.0317537 -0.0124054 0.00687169
13 3 28.8846 31.1294 45.6373 -0.00285747 0.00329796 0.00186775
67 6 29.7851 31.0088 54.2577 0.0120387 -0.0207336 -0.00121962
12 3 28.6469 31.4953 46.9938 0.00165747 0.00203601 0.0029892
40 6 27.8703 31.0257 47.4625 0.00639679 -0.00378545 0.00505009
41 6 28.325 30.3856 45.2128 -0.00723619 0.00659735 0.00262597
3 1 26.551 30.3262 54.4492 0.00945729 -0.0110008 0.000591137
4 2 27.8371 30.2085 53.7064 0.00676464 0.00522392 -0.00717078
5 3 27.9782 30.9867 52.52 -0.000331578 0.000342745 -0.00517309
6 3 28.0125 32.4007 52.5114 -0.00468926 -0.00218184 -0.000761417
7 3 28.2026 33.1221 51.3202 -7.21855e-05 -0.00210488 0.00121192
8 3 28.5529 32.4698 50.0985 -0.00516378 -0.0012536 -0.000180436