Created by /home/rramji/scripts/createLammpsInput.pl on Fri Jun 23 11:20:52 2023

        1000 atoms
           0 bonds
           0 angles
           0 dihedrals
           0 impropers

           2 atom types
           0 bond types
           0 angle types
           0 dihedral types
           0 improper types

		   0.000000  33.375950 xlo xhi
		   0.000000  38.539200 ylo yhi
		   0.000000  19.373540 zlo zhi

Masses

    1 6.5377E+01 # Zn     
    2 3.2060E+01 # S_3    

Pair Coeffs

    1    0.05500    4.04468 # Zn Zn 
    2    0.34400    3.59032 # S_3 S_3 

Atoms

       1        1        1  2.00000000    0.00000    0.00000    0.00000    0    0    0
       2        2        1  2.00000000    0.00000    0.00000    9.44014    0    0    0
       3        3        1  2.00000000    2.22506    0.00000    3.14671    0    0    0
       4        4        1  2.00000000    2.22506    0.00000   12.58686    0    0    0
       5        5        1  2.00000000    4.45013    0.00000    6.29343    0    0    0
       6        6        1  2.00000000    5.56266    1.92696    3.14671    0    0    0
       7        7        1  2.00000000    5.56266    1.92696   12.58686    0    0    0
       8        8        1  2.00000000    1.11253    1.92696    6.29343    0    0    0
       9        9        1  2.00000000    3.33759    1.92696    0.00000    0    0    0
      10       10        1  2.00000000    3.33759    1.92696    9.44014    0    0    0
      11       11        2 -2.00000000    4.45013    0.00000    3.93339    0    0    0
      12       12        2 -2.00000000    4.45013    0.00000   13.37354    0    0    0
      13       13        2 -2.00000000    0.00000    0.00000    7.08011    0    0    0
      14       14        2 -2.00000000    2.22506    0.00000    0.78668    0    0    0
      15       15        2 -2.00000000    2.22506    0.00000   10.22682    0    0    0
      16       16        2 -2.00000000    1.11253    1.92696    3.93339    0    0    0
      17       17        2 -2.00000000    1.11253    1.92696   13.37354    0    0    0
      18       18        2 -2.00000000    3.33759    1.92696    7.08011    0    0    0
      19       19        2 -2.00000000    5.56266    1.92696    0.78668    0    0    0
      20       20        2 -2.00000000    5.56266    1.92696   10.22682    0    0    0
      21       21        1  2.00000000    6.67519    0.00000    0.00000    0    0    0
      22       22        1  2.00000000    6.67519    0.00000    9.44014    0    0    0
      23       23        1  2.00000000    8.90025    0.00000    3.14671    0    0    0
      24       24        1  2.00000000    8.90025    0.00000   12.58686    0    0    0
      25       25        1  2.00000000   11.12532    0.00000    6.29343    0    0    0
      26       26        1  2.00000000   12.23785    1.92696    3.14671    0    0    0
      27       27        1  2.00000000   12.23785    1.92696   12.58686    0    0    0
      28       28        1  2.00000000    7.78772    1.92696    6.29343    0    0    0
      29       29        1  2.00000000   10.01278    1.92696    0.00000    0    0    0
      30       30        1  2.00000000   10.01278    1.92696    9.44014    0    0    0
      31       31        2 -2.00000000   11.12532    0.00000    3.93339    0    0    0
      32       32        2 -2.00000000   11.12532    0.00000   13.37354    0    0    0
      33       33        2 -2.00000000    6.67519    0.00000    7.08011    0    0    0
      34       34        2 -2.00000000    8.90025    0.00000    0.78668    0    0    0
      35       35        2 -2.00000000    8.90025    0.00000   10.22682    0    0    0
      36       36        2 -2.00000000    7.78772    1.92696    3.93339    0    0    0
      37       37        2 -2.00000000    7.78772    1.92696   13.37354    0    0    0
      38       38        2 -2.00000000   10.01278    1.92696    7.08011    0    0    0
      39       39        2 -2.00000000   12.23785    1.92696    0.78668    0    0    0
      40       40        2 -2.00000000   12.23785    1.92696   10.22682    0    0    0
      41       41        1  2.00000000   13.35038    0.00000    0.00000    0    0    0
      42       42        1  2.00000000   13.35038    0.00000    9.44014    0    0    0
      43       43        1  2.00000000   15.57544    0.00000    3.14671    0    0    0
      44       44        1  2.00000000   15.57544    0.00000   12.58686    0    0    0
      45       45        1  2.00000000   17.80051    0.00000    6.29343    0    0    0
      46       46        1  2.00000000   18.91304    1.92696    3.14671    0    0    0
      47       47        1  2.00000000   18.91304    1.92696   12.58686    0    0    0
      48       48        1  2.00000000   14.46291    1.92696    6.29343    0    0    0
      49       49        1  2.00000000   16.68797    1.92696    0.00000    0    0    0
      50       50        1  2.00000000   16.68797    1.92696    9.44014    0    0    0
      51       51        2 -2.00000000   17.80051    0.00000    3.93339    0    0    0
      52       52        2 -2.00000000   17.80051    0.00000   13.37354    0    0    0
      53       53        2 -2.00000000   13.35038    0.00000    7.08011    0    0    0
      54       54        2 -2.00000000   15.57544    0.00000    0.78668    0    0    0
      55       55        2 -2.00000000   15.57544    0.00000   10.22682    0    0    0
      56       56        2 -2.00000000   14.46291    1.92696    3.93339    0    0    0
      57       57        2 -2.00000000   14.46291    1.92696   13.37354    0    0    0
      58       58        2 -2.00000000   16.68797    1.92696    7.08011    0    0    0
      59       59        2 -2.00000000   18.91304    1.92696    0.78668    0    0    0
      60       60        2 -2.00000000   18.91304    1.92696   10.22682    0    0    0
      61       61        1  2.00000000   20.02557    0.00000    0.00000    0    0    0
      62       62        1  2.00000000   20.02557    0.00000    9.44014    0    0    0
      63       63        1  2.00000000   22.25063    0.00000    3.14671    0    0    0
      64       64        1  2.00000000   22.25063    0.00000   12.58686    0    0    0
      65       65        1  2.00000000   24.47570    0.00000    6.29343    0    0    0
      66       66        1  2.00000000   25.58823    1.92696    3.14671    0    0    0
      67       67        1  2.00000000   25.58823    1.92696   12.58686    0    0    0
      68       68        1  2.00000000   21.13810    1.92696    6.29343    0    0    0
      69       69        1  2.00000000   23.36316    1.92696    0.00000    0    0    0
      70       70        1  2.00000000   23.36316    1.92696    9.44014    0    0    0
      71       71        2 -2.00000000   24.47570    0.00000    3.93339    0    0    0
      72       72        2 -2.00000000   24.47570    0.00000   13.37354    0    0    0
      73       73        2 -2.00000000   20.02557    0.00000    7.08011    0    0    0
      74       74        2 -2.00000000   22.25063    0.00000    0.78668    0    0    0
      75       75        2 -2.00000000   22.25063    0.00000   10.22682    0    0    0
      76       76        2 -2.00000000   21.13810    1.92696    3.93339    0    0    0
      77       77        2 -2.00000000   21.13810    1.92696   13.37354    0    0    0
      78       78        2 -2.00000000   23.36316    1.92696    7.08011    0    0    0
      79       79        2 -2.00000000   25.58823    1.92696    0.78668    0    0    0
      80       80        2 -2.00000000   25.58823    1.92696   10.22682    0    0    0
      81       81        1  2.00000000   26.70076    0.00000    0.00000    0    0    0
      82       82        1  2.00000000   26.70076    0.00000    9.44014    0    0    0
      83       83        1  2.00000000   28.92582    0.00000    3.14671    0    0    0
      84       84        1  2.00000000   28.92582    0.00000   12.58686    0    0    0
      85       85        1  2.00000000   31.15089    0.00000    6.29343    0    0    0
      86       86        1  2.00000000   32.26342    1.92696    3.14671    0    0    0
      87       87        1  2.00000000   32.26342    1.92696   12.58686    0    0    0
      88       88        1  2.00000000   27.81329    1.92696    6.29343    0    0    0
      89       89        1  2.00000000   30.03835    1.92696    0.00000    0    0    0
      90       90        1  2.00000000   30.03835    1.92696    9.44014    0    0    0
      91       91        2 -2.00000000   31.15089    0.00000    3.93339    0    0    0
      92       92        2 -2.00000000   31.15089    0.00000   13.37354    0    0    0
      93       93        2 -2.00000000   26.70076    0.00000    7.08011    0    0    0
      94       94        2 -2.00000000   28.92582    0.00000    0.78668    0    0    0
      95       95        2 -2.00000000   28.92582    0.00000   10.22682    0    0    0
      96       96        2 -2.00000000   27.81329    1.92696    3.93339    0    0    0
      97       97        2 -2.00000000   27.81329    1.92696   13.37354    0    0    0
      98       98        2 -2.00000000   30.03835    1.92696    7.08011    0    0    0
      99       99        2 -2.00000000   32.26342    1.92696    0.78668    0    0    0
     100      100        2 -2.00000000   32.26342    1.92696   10.22682    0    0    0
     101      101        1  2.00000000    0.00000    3.85392    0.00000    0    0    0
     102      102        1  2.00000000    0.00000    3.85392    9.44014    0    0    0
     103      103        1  2.00000000    2.22506    3.85392    3.14671    0    0    0
     104      104        1  2.00000000    2.22506    3.85392   12.58686    0    0    0
     105      105        1  2.00000000    4.45013    3.85392    6.29343    0    0    0
     106      106        1  2.00000000    5.56266    5.78088    3.14671    0    0    0
     107      107        1  2.00000000    5.56266    5.78088   12.58686    0    0    0
     108      108        1  2.00000000    1.11253    5.78088    6.29343    0    0    0
     109      109        1  2.00000000    3.33759    5.78088    0.00000    0    0    0
     110      110        1  2.00000000    3.33759    5.78088    9.44014    0    0    0
     111      111        2 -2.00000000    4.45013    3.85392    3.93339    0    0    0
     112      112        2 -2.00000000    4.45013    3.85392   13.37354    0    0    0
     113      113        2 -2.00000000    0.00000    3.85392    7.08011    0    0    0
     114      114        2 -2.00000000    2.22506    3.85392    0.78668    0    0    0
     115      115        2 -2.00000000    2.22506    3.85392   10.22682    0    0    0
     116      116        2 -2.00000000    1.11253    5.78088    3.93339    0    0    0
     117      117        2 -2.00000000    1.11253    5.78088   13.37354    0    0    0
     118      118        2 -2.00000000    3.33759    5.78088    7.08011    0    0    0
     119      119        2 -2.00000000    5.56266    5.78088    0.78668    0    0    0
     120      120        2 -2.00000000    5.56266    5.78088   10.22682    0    0    0
     121      121        1  2.00000000    6.67519    3.85392    0.00000    0    0    0
     122      122        1  2.00000000    6.67519    3.85392    9.44014    0    0    0
     123      123        1  2.00000000    8.90025    3.85392    3.14671    0    0    0
     124      124        1  2.00000000    8.90025    3.85392   12.58686    0    0    0
     125      125        1  2.00000000   11.12532    3.85392    6.29343    0    0    0
     126      126        1  2.00000000   12.23785    5.78088    3.14671    0    0    0
     127      127        1  2.00000000   12.23785    5.78088   12.58686    0    0    0
     128      128        1  2.00000000    7.78772    5.78088    6.29343    0    0    0
     129      129        1  2.00000000   10.01278    5.78088    0.00000    0    0    0
     130      130        1  2.00000000   10.01278    5.78088    9.44014    0    0    0
     131      131        2 -2.00000000   11.12532    3.85392    3.93339    0    0    0
     132      132        2 -2.00000000   11.12532    3.85392   13.37354    0    0    0
     133      133        2 -2.00000000    6.67519    3.85392    7.08011    0    0    0
     134      134        2 -2.00000000    8.90025    3.85392    0.78668    0    0    0
     135      135        2 -2.00000000    8.90025    3.85392   10.22682    0    0    0
     136      136        2 -2.00000000    7.78772    5.78088    3.93339    0    0    0
     137      137        2 -2.00000000    7.78772    5.78088   13.37354    0    0    0
     138      138        2 -2.00000000   10.01278    5.78088    7.08011    0    0    0
     139      139        2 -2.00000000   12.23785    5.78088    0.78668    0    0    0
     140      140        2 -2.00000000   12.23785    5.78088   10.22682    0    0    0
     141      141        1  2.00000000   13.35038    3.85392    0.00000    0    0    0
     142      142        1  2.00000000   13.35038    3.85392    9.44014    0    0    0
     143      143        1  2.00000000   15.57544    3.85392    3.14671    0    0    0
     144      144        1  2.00000000   15.57544    3.85392   12.58686    0    0    0
     145      145        1  2.00000000   17.80051    3.85392    6.29343    0    0    0
     146      146        1  2.00000000   18.91304    5.78088    3.14671    0    0    0
     147      147        1  2.00000000   18.91304    5.78088   12.58686    0    0    0
     148      148        1  2.00000000   14.46291    5.78088    6.29343    0    0    0
     149      149        1  2.00000000   16.68797    5.78088    0.00000    0    0    0
     150      150        1  2.00000000   16.68797    5.78088    9.44014    0    0    0
     151      151        2 -2.00000000   17.80051    3.85392    3.93339    0    0    0
     152      152        2 -2.00000000   17.80051    3.85392   13.37354    0    0    0
     153      153        2 -2.00000000   13.35038    3.85392    7.08011    0    0    0
     154      154        2 -2.00000000   15.57544    3.85392    0.78668    0    0    0
     155      155        2 -2.00000000   15.57544    3.85392   10.22682    0    0    0
     156      156        2 -2.00000000   14.46291    5.78088    3.93339    0    0    0
     157      157        2 -2.00000000   14.46291    5.78088   13.37354    0    0    0
     158      158        2 -2.00000000   16.68797    5.78088    7.08011    0    0    0
     159      159        2 -2.00000000   18.91304    5.78088    0.78668    0    0    0
     160      160        2 -2.00000000   18.91304    5.78088   10.22682    0    0    0
     161      161        1  2.00000000   20.02557    3.85392    0.00000    0    0    0
     162      162        1  2.00000000   20.02557    3.85392    9.44014    0    0    0
     163      163        1  2.00000000   22.25063    3.85392    3.14671    0    0    0
     164      164        1  2.00000000   22.25063    3.85392   12.58686    0    0    0
     165      165        1  2.00000000   24.47570    3.85392    6.29343    0    0    0
     166      166        1  2.00000000   25.58823    5.78088    3.14671    0    0    0
     167      167        1  2.00000000   25.58823    5.78088   12.58686    0    0    0
     168      168        1  2.00000000   21.13810    5.78088    6.29343    0    0    0
     169      169        1  2.00000000   23.36316    5.78088    0.00000    0    0    0
     170      170        1  2.00000000   23.36316    5.78088    9.44014    0    0    0
     171      171        2 -2.00000000   24.47570    3.85392    3.93339    0    0    0
     172      172        2 -2.00000000   24.47570    3.85392   13.37354    0    0    0
     173      173        2 -2.00000000   20.02557    3.85392    7.08011    0    0    0
     174      174        2 -2.00000000   22.25063    3.85392    0.78668    0    0    0
     175      175        2 -2.00000000   22.25063    3.85392   10.22682    0    0    0
     176      176        2 -2.00000000   21.13810    5.78088    3.93339    0    0    0
     177      177        2 -2.00000000   21.13810    5.78088   13.37354    0    0    0
     178      178        2 -2.00000000   23.36316    5.78088    7.08011    0    0    0
     179      179        2 -2.00000000   25.58823    5.78088    0.78668    0    0    0
     180      180        2 -2.00000000   25.58823    5.78088   10.22682    0    0    0
     181      181        1  2.00000000   26.70076    3.85392    0.00000    0    0    0
     182      182        1  2.00000000   26.70076    3.85392    9.44014    0    0    0
     183      183        1  2.00000000   28.92582    3.85392    3.14671    0    0    0
     184      184        1  2.00000000   28.92582    3.85392   12.58686    0    0    0
     185      185        1  2.00000000   31.15089    3.85392    6.29343    0    0    0
     186      186        1  2.00000000   32.26342    5.78088    3.14671    0    0    0
     187      187        1  2.00000000   32.26342    5.78088   12.58686    0    0    0
     188      188        1  2.00000000   27.81329    5.78088    6.29343    0    0    0
     189      189        1  2.00000000   30.03835    5.78088    0.00000    0    0    0
     190      190        1  2.00000000   30.03835    5.78088    9.44014    0    0    0
     191      191        2 -2.00000000   31.15089    3.85392    3.93339    0    0    0
     192      192        2 -2.00000000   31.15089    3.85392   13.37354    0    0    0
     193      193        2 -2.00000000   26.70076    3.85392    7.08011    0    0    0
     194      194        2 -2.00000000   28.92582    3.85392    0.78668    0    0    0
     195      195        2 -2.00000000   28.92582    3.85392   10.22682    0    0    0
     196      196        2 -2.00000000   27.81329    5.78088    3.93339    0    0    0
     197      197        2 -2.00000000   27.81329    5.78088   13.37354    0    0    0
     198      198        2 -2.00000000   30.03835    5.78088    7.08011    0    0    0
     199      199        2 -2.00000000   32.26342    5.78088    0.78668    0    0    0
     200      200        2 -2.00000000   32.26342    5.78088   10.22682    0    0    0
     201      201        1  2.00000000    0.00000    7.70784    0.00000    0    0    0
     202      202        1  2.00000000    0.00000    7.70784    9.44014    0    0    0
     203      203        1  2.00000000    2.22506    7.70784    3.14671    0    0    0
     204      204        1  2.00000000    2.22506    7.70784   12.58686    0    0    0
     205      205        1  2.00000000    4.45013    7.70784    6.29343    0    0    0
     206      206        1  2.00000000    5.56266    9.63480    3.14671    0    0    0
     207      207        1  2.00000000    5.56266    9.63480   12.58686    0    0    0
     208      208        1  2.00000000    1.11253    9.63480    6.29343    0    0    0
     209      209        1  2.00000000    3.33759    9.63480    0.00000    0    0    0
     210      210        1  2.00000000    3.33759    9.63480    9.44014    0    0    0
     211      211        2 -2.00000000    4.45013    7.70784    3.93339    0    0    0
     212      212        2 -2.00000000    4.45013    7.70784   13.37354    0    0    0
     213      213        2 -2.00000000    0.00000    7.70784    7.08011    0    0    0
     214      214        2 -2.00000000    2.22506    7.70784    0.78668    0    0    0
     215      215        2 -2.00000000    2.22506    7.70784   10.22682    0    0    0
     216      216        2 -2.00000000    1.11253    9.63480    3.93339    0    0    0
     217      217        2 -2.00000000    1.11253    9.63480   13.37354    0    0    0
     218      218        2 -2.00000000    3.33759    9.63480    7.08011    0    0    0
     219      219        2 -2.00000000    5.56266    9.63480    0.78668    0    0    0
     220      220        2 -2.00000000    5.56266    9.63480   10.22682    0    0    0
     221      221        1  2.00000000    6.67519    7.70784    0.00000    0    0    0
     222      222        1  2.00000000    6.67519    7.70784    9.44014    0    0    0
     223      223        1  2.00000000    8.90025    7.70784    3.14671    0    0    0
     224      224        1  2.00000000    8.90025    7.70784   12.58686    0    0    0
     225      225        1  2.00000000   11.12532    7.70784    6.29343    0    0    0
     226      226        1  2.00000000   12.23785    9.63480    3.14671    0    0    0
     227      227        1  2.00000000   12.23785    9.63480   12.58686    0    0    0
     228      228        1  2.00000000    7.78772    9.63480    6.29343    0    0    0
     229      229        1  2.00000000   10.01278    9.63480    0.00000    0    0    0
     230      230        1  2.00000000   10.01278    9.63480    9.44014    0    0    0
     231      231        2 -2.00000000   11.12532    7.70784    3.93339    0    0    0
     232      232        2 -2.00000000   11.12532    7.70784   13.37354    0    0    0
     233      233        2 -2.00000000    6.67519    7.70784    7.08011    0    0    0
     234      234        2 -2.00000000    8.90025    7.70784    0.78668    0    0    0
     235      235        2 -2.00000000    8.90025    7.70784   10.22682    0    0    0
     236      236        2 -2.00000000    7.78772    9.63480    3.93339    0    0    0
     237      237        2 -2.00000000    7.78772    9.63480   13.37354    0    0    0
     238      238        2 -2.00000000   10.01278    9.63480    7.08011    0    0    0
     239      239        2 -2.00000000   12.23785    9.63480    0.78668    0    0    0
     240      240        2 -2.00000000   12.23785    9.63480   10.22682    0    0    0
     241      241        1  2.00000000   13.35038    7.70784    0.00000    0    0    0
     242      242        1  2.00000000   13.35038    7.70784    9.44014    0    0    0
     243      243        1  2.00000000   15.57544    7.70784    3.14671    0    0    0
     244      244        1  2.00000000   15.57544    7.70784   12.58686    0    0    0
     245      245        1  2.00000000   17.80051    7.70784    6.29343    0    0    0
     246      246        1  2.00000000   18.91304    9.63480    3.14671    0    0    0
     247      247        1  2.00000000   18.91304    9.63480   12.58686    0    0    0
     248      248        1  2.00000000   14.46291    9.63480    6.29343    0    0    0
     249      249        1  2.00000000   16.68797    9.63480    0.00000    0    0    0
     250      250        1  2.00000000   16.68797    9.63480    9.44014    0    0    0
     251      251        2 -2.00000000   17.80051    7.70784    3.93339    0    0    0
     252      252        2 -2.00000000   17.80051    7.70784   13.37354    0    0    0
     253      253        2 -2.00000000   13.35038    7.70784    7.08011    0    0    0
     254      254        2 -2.00000000   15.57544    7.70784    0.78668    0    0    0
     255      255        2 -2.00000000   15.57544    7.70784   10.22682    0    0    0
     256      256        2 -2.00000000   14.46291    9.63480    3.93339    0    0    0
     257      257        2 -2.00000000   14.46291    9.63480   13.37354    0    0    0
     258      258        2 -2.00000000   16.68797    9.63480    7.08011    0    0    0
     259      259        2 -2.00000000   18.91304    9.63480    0.78668    0    0    0
     260      260        2 -2.00000000   18.91304    9.63480   10.22682    0    0    0
     261      261        1  2.00000000   20.02557    7.70784    0.00000    0    0    0
     262      262        1  2.00000000   20.02557    7.70784    9.44014    0    0    0
     263      263        1  2.00000000   22.25063    7.70784    3.14671    0    0    0
     264      264        1  2.00000000   22.25063    7.70784   12.58686    0    0    0
     265      265        1  2.00000000   24.47570    7.70784    6.29343    0    0    0
     266      266        1  2.00000000   25.58823    9.63480    3.14671    0    0    0
     267      267        1  2.00000000   25.58823    9.63480   12.58686    0    0    0
     268      268        1  2.00000000   21.13810    9.63480    6.29343    0    0    0
     269      269        1  2.00000000   23.36316    9.63480    0.00000    0    0    0
     270      270        1  2.00000000   23.36316    9.63480    9.44014    0    0    0
     271      271        2 -2.00000000   24.47570    7.70784    3.93339    0    0    0
     272      272        2 -2.00000000   24.47570    7.70784   13.37354    0    0    0
     273      273        2 -2.00000000   20.02557    7.70784    7.08011    0    0    0
     274      274        2 -2.00000000   22.25063    7.70784    0.78668    0    0    0
     275      275        2 -2.00000000   22.25063    7.70784   10.22682    0    0    0
     276      276        2 -2.00000000   21.13810    9.63480    3.93339    0    0    0
     277      277        2 -2.00000000   21.13810    9.63480   13.37354    0    0    0
     278      278        2 -2.00000000   23.36316    9.63480    7.08011    0    0    0
     279      279        2 -2.00000000   25.58823    9.63480    0.78668    0    0    0
     280      280        2 -2.00000000   25.58823    9.63480   10.22682    0    0    0
     281      281        1  2.00000000   26.70076    7.70784    0.00000    0    0    0
     282      282        1  2.00000000   26.70076    7.70784    9.44014    0    0    0
     283      283        1  2.00000000   28.92582    7.70784    3.14671    0    0    0
     284      284        1  2.00000000   28.92582    7.70784   12.58686    0    0    0
     285      285        1  2.00000000   31.15089    7.70784    6.29343    0    0    0
     286      286        1  2.00000000   32.26342    9.63480    3.14671    0    0    0
     287      287        1  2.00000000   32.26342    9.63480   12.58686    0    0    0
     288      288        1  2.00000000   27.81329    9.63480    6.29343    0    0    0
     289      289        1  2.00000000   30.03835    9.63480    0.00000    0    0    0
     290      290        1  2.00000000   30.03835    9.63480    9.44014    0    0    0
     291      291        2 -2.00000000   31.15089    7.70784    3.93339    0    0    0
     292      292        2 -2.00000000   31.15089    7.70784   13.37354    0    0    0
     293      293        2 -2.00000000   26.70076    7.70784    7.08011    0    0    0
     294      294        2 -2.00000000   28.92582    7.70784    0.78668    0    0    0
     295      295        2 -2.00000000   28.92582    7.70784   10.22682    0    0    0
     296      296        2 -2.00000000   27.81329    9.63480    3.93339    0    0    0
     297      297        2 -2.00000000   27.81329    9.63480   13.37354    0    0    0
     298      298        2 -2.00000000   30.03835    9.63480    7.08011    0    0    0
     299      299        2 -2.00000000   32.26342    9.63480    0.78668    0    0    0
     300      300        2 -2.00000000   32.26342    9.63480   10.22682    0    0    0
     301      301        1  2.00000000    0.00000   11.56176    0.00000    0    0    0
     302      302        1  2.00000000    0.00000   11.56176    9.44014    0    0    0
     303      303        1  2.00000000    2.22506   11.56176    3.14671    0    0    0
     304      304        1  2.00000000    2.22506   11.56176   12.58686    0    0    0
     305      305        1  2.00000000    4.45013   11.56176    6.29343    0    0    0
     306      306        1  2.00000000    5.56266   13.48872    3.14671    0    0    0
     307      307        1  2.00000000    5.56266   13.48872   12.58686    0    0    0
     308      308        1  2.00000000    1.11253   13.48872    6.29343    0    0    0
     309      309        1  2.00000000    3.33759   13.48872    0.00000    0    0    0
     310      310        1  2.00000000    3.33759   13.48872    9.44014    0    0    0
     311      311        2 -2.00000000    4.45013   11.56176    3.93339    0    0    0
     312      312        2 -2.00000000    4.45013   11.56176   13.37354    0    0    0
     313      313        2 -2.00000000    0.00000   11.56176    7.08011    0    0    0
     314      314        2 -2.00000000    2.22506   11.56176    0.78668    0    0    0
     315      315        2 -2.00000000    2.22506   11.56176   10.22682    0    0    0
     316      316        2 -2.00000000    1.11253   13.48872    3.93339    0    0    0
     317      317        2 -2.00000000    1.11253   13.48872   13.37354    0    0    0
     318      318        2 -2.00000000    3.33759   13.48872    7.08011    0    0    0
     319      319        2 -2.00000000    5.56266   13.48872    0.78668    0    0    0
     320      320        2 -2.00000000    5.56266   13.48872   10.22682    0    0    0
     321      321        1  2.00000000    6.67519   11.56176    0.00000    0    0    0
     322      322        1  2.00000000    6.67519   11.56176    9.44014    0    0    0
     323      323        1  2.00000000    8.90025   11.56176    3.14671    0    0    0
     324      324        1  2.00000000    8.90025   11.56176   12.58686    0    0    0
     325      325        1  2.00000000   11.12532   11.56176    6.29343    0    0    0
     326      326        1  2.00000000   12.23785   13.48872    3.14671    0    0    0
     327      327        1  2.00000000   12.23785   13.48872   12.58686    0    0    0
     328      328        1  2.00000000    7.78772   13.48872    6.29343    0    0    0
     329      329        1  2.00000000   10.01278   13.48872    0.00000    0    0    0
     330      330        1  2.00000000   10.01278   13.48872    9.44014    0    0    0
     331      331        2 -2.00000000   11.12532   11.56176    3.93339    0    0    0
     332      332        2 -2.00000000   11.12532   11.56176   13.37354    0    0    0
     333      333        2 -2.00000000    6.67519   11.56176    7.08011    0    0    0
     334      334        2 -2.00000000    8.90025   11.56176    0.78668    0    0    0
     335      335        2 -2.00000000    8.90025   11.56176   10.22682    0    0    0
     336      336        2 -2.00000000    7.78772   13.48872    3.93339    0    0    0
     337      337        2 -2.00000000    7.78772   13.48872   13.37354    0    0    0
     338      338        2 -2.00000000   10.01278   13.48872    7.08011    0    0    0