ITEM: TIMESTEP
0
ITEM: NUMBER OF ATOMS
432
ITEM: BOX BOUNDS pp pp pp
0.0000000000000000e+00 4.5735666607145887e+01
0.0000000000000000e+00 3.2339999999999996e+01
0.0000000000000000e+00 1.9056527752977455e+01
ITEM: ATOMS id type xu yu zu vx vy vz
1 1 0 0 0 0 0 0
2 2 1.90565 1.3475 0 0 0 0
3 1 3.81131 0 3.81131 0 0 0
4 2 5.71696 1.3475 3.81131 0 0 0
11 1 3.81131 0 19.0565 0 0 0
12 2 5.71696 1.3475 19.0565 0 0 0
13 1 0 5.39 0 0 0 0
14 2 1.90565 6.7375 0 0 0 0
15 1 3.81131 5.39 3.81131 0 0 0
16 2 5.71696 6.7375 3.81131 0 0 0
23 1 3.81131 5.39 19.0565 0 0 0
24 2 5.71696 6.7375 19.0565 0 0 0
73 1 7.62261 0 0 0 0 0
74 2 9.52826 1.3475 0 0 0 0
85 1 7.62261 5.39 0 0 0 0
86 2 9.52826 6.7375 0 0 0 0
25 1 0 10.78 0 0 0 0
26 2 1.90565 12.1275 0 0 0 0
27 1 3.81131 10.78 3.81131 0 0 0
28 2 5.71696 12.1275 3.81131 0 0 0
35 1 3.81131 10.78 19.0565 0 0 0
36 2 5.71696 12.1275 19.0565 0 0 0
97 1 7.62261 10.78 0 0 0 0
98 2 9.52826 12.1275 0 0 0 0
5 1 7.62261 0 7.62261 0 0 0
6 2 1.90565 1.3475 7.62261 0 0 0
7 1 3.81131 0 11.4339 0 0 0
8 2 5.71696 1.3475 11.4339 0 0 0
17 1 7.62261 5.39 7.62261 0 0 0
18 2 1.90565 6.7375 7.62261 0 0 0
19 1 3.81131 5.39 11.4339 0 0 0
20 2 5.71696 6.7375 11.4339 0 0 0
78 2 9.52826 1.3475 7.62261 0 0 0
90 2 9.52826 6.7375 7.62261 0 0 0
365 1 0 0 7.62261 0 0 0
377 1 0 5.39 7.62261 0 0 0
29 1 7.62261 10.78 7.62261 0 0 0
30 2 1.90565 12.1275 7.62261 0 0 0
31 1 3.81131 10.78 11.4339 0 0 0
32 2 5.71696 12.1275 11.4339 0 0 0
102 2 9.52826 12.1275 7.62261 0 0 0
389 1 0 10.78 7.62261 0 0 0
9 1 7.62261 0 15.2452 0 0 0
10 2 1.90565 1.3475 15.2452 0 0 0
21 1 7.62261 5.39 15.2452 0 0 0
22 2 1.90565 6.7375 15.2452 0 0 0
82 2 9.52826 1.3475 15.2452 0 0 0
94 2 9.52826 6.7375 15.2452 0 0 0
369 1 0 0 15.2452 0 0 0
381 1 0 5.39 15.2452 0 0 0
33 1 7.62261 10.78 15.2452 0 0 0
34 2 1.90565 12.1275 15.2452 0 0 0
106 2 9.52826 12.1275 15.2452 0 0 0
393 1 0 10.78 15.2452 0 0 0
37 1 0 16.17 0 0 0 0
38 2 1.90565 17.5175 0 0 0 0
39 1 3.81131 16.17 3.81131 0 0 0
40 2 5.71696 17.5175 3.81131 0 0 0
47 1 3.81131 16.17 19.0565 0 0 0
48 2 5.71696 17.5175 19.0565 0 0 0
49 1 0 21.56 0 0 0 0
50 2 1.90565 22.9075 0 0 0 0
51 1 3.81131 21.56 3.81131 0 0 0
52 2 5.71696 22.9075 3.81131 0 0 0
59 1 3.81131 21.56 19.0565 0 0 0
60 2 5.71696 22.9075 19.0565 0 0 0
109 1 7.62261 16.17 0 0 0 0
110 2 9.52826 17.5175 0 0 0 0
121 1 7.62261 21.56 0 0 0 0
122 2 9.52826 22.9075 0 0 0 0
61 1 0 26.95 0 0 0 0
62 2 1.90565 28.2975 0 0 0 0
63 1 3.81131 26.95 3.81131 0 0 0
64 2 5.71696 28.2975 3.81131 0 0 0
71 1 3.81131 26.95 19.0565 0 0 0
72 2 5.71696 28.2975 19.0565 0 0 0
133 1 7.62261 26.95 0 0 0 0
134 2 9.52826 28.2975 0 0 0 0
41 1 7.62261 16.17 7.62261 0 0 0
42 2 1.90565 17.5175 7.62261 0 0 0
43 1 3.81131 16.17 11.4339 0 0 0
44 2 5.71696 17.5175 11.4339 0 0 0
53 1 7.62261 21.56 7.62261 0 0 0
54 2 1.90565 22.9075 7.62261 0 0 0
55 1 3.81131 21.56 11.4339 0 0 0
56 2 5.71696 22.9075 11.4339 0 0 0
114 2 9.52826 17.5175 7.62261 0 0 0
126 2 9.52826 22.9075 7.62261 0 0 0
401 1 0 16.17 7.62261 0 0 0
413 1 0 21.56 7.62261 0 0 0
65 1 7.62261 26.95 7.62261 0 0 0
66 2 1.90565 28.2975 7.62261 0 0 0
67 1 3.81131 26.95 11.4339 0 0 0
68 2 5.71696 28.2975 11.4339 0 0 0
138 2 9.52826 28.2975 7.62261 0 0 0
425 1 0 26.95 7.62261 0 0 0
45 1 7.62261 16.17 15.2452 0 0 0
46 2 1.90565 17.5175 15.2452 0 0 0
57 1 7.62261 21.56 15.2452 0 0 0
58 2 1.90565 22.9075 15.2452 0 0 0
118 2 9.52826 17.5175 15.2452 0 0 0
130 2 9.52826 22.9075 15.2452 0 0 0
405 1 0 16.17 15.2452 0 0 0
417 1 0 21.56 15.2452 0 0 0
69 1 7.62261 26.95 15.2452 0 0 0
70 2 1.90565 28.2975 15.2452 0 0 0
142 2 9.52826 28.2975 15.2452 0 0 0
429 1 0 26.95 15.2452 0 0 0
75 1 11.4339 0 3.81131 0 0 0
76 2 13.3396 1.3475 3.81131 0 0 0
83 1 11.4339 0 19.0565 0 0 0
84 2 13.3396 1.3475 19.0565 0 0 0
87 1 11.4339 5.39 3.81131 0 0 0
88 2 13.3396 6.7375 3.81131 0 0 0
95 1 11.4339 5.39 19.0565 0 0 0
96 2 13.3396 6.7375 19.0565 0 0 0
145 1 15.2452 0 0 0 0 0
146 2 17.1509 1.3475 0 0 0 0
147 1 19.0565 0 3.81131 0 0 0
148 2 20.9622 1.3475 3.81131 0 0 0
155 1 19.0565 0 19.0565 0 0 0
156 2 20.9622 1.3475 19.0565 0 0 0
157 1 15.2452 5.39 0 0 0 0
158 2 17.1509 6.7375 0 0 0 0
159 1 19.0565 5.39 3.81131 0 0 0
160 2 20.9622 6.7375 3.81131 0 0 0
167 1 19.0565 5.39 19.0565 0 0 0
168 2 20.9622 6.7375 19.0565 0 0 0
217 1 22.8678 0 0 0 0 0
229 1 22.8678 5.39 0 0 0 0
99 1 11.4339 10.78 3.81131 0 0 0
100 2 13.3396 12.1275 3.81131 0 0 0
107 1 11.4339 10.78 19.0565 0 0 0
108 2 13.3396 12.1275 19.0565 0 0 0
169 1 15.2452 10.78 0 0 0 0
170 2 17.1509 12.1275 0 0 0 0
171 1 19.0565 10.78 3.81131 0 0 0
172 2 20.9622 12.1275 3.81131 0 0 0
179 1 19.0565 10.78 19.0565 0 0 0
180 2 20.9622 12.1275 19.0565 0 0 0
241 1 22.8678 10.78 0 0 0 0
77 1 15.2452 0 7.62261 0 0 0
79 1 11.4339 0 11.4339 0 0 0
80 2 13.3396 1.3475 11.4339 0 0 0
89 1 15.2452 5.39 7.62261 0 0 0
91 1 11.4339 5.39 11.4339 0 0 0
92 2 13.3396 6.7375 11.4339 0 0 0
149 1 22.8678 0 7.62261 0 0 0
150 2 17.1509 1.3475 7.62261 0 0 0
151 1 19.0565 0 11.4339 0 0 0
152 2 20.9622 1.3475 11.4339 0 0 0
161 1 22.8678 5.39 7.62261 0 0 0
162 2 17.1509 6.7375 7.62261 0 0 0
163 1 19.0565 5.39 11.4339 0 0 0
164 2 20.9622 6.7375 11.4339 0 0 0
101 1 15.2452 10.78 7.62261 0 0 0
103 1 11.4339 10.78 11.4339 0 0 0
104 2 13.3396 12.1275 11.4339 0 0 0
173 1 22.8678 10.78 7.62261 0 0 0
174 2 17.1509 12.1275 7.62261 0 0 0
175 1 19.0565 10.78 11.4339 0 0 0
176 2 20.9622 12.1275 11.4339 0 0 0
81 1 15.2452 0 15.2452 0 0 0
93 1 15.2452 5.39 15.2452 0 0 0
153 1 22.8678 0 15.2452 0 0 0
154 2 17.1509 1.3475 15.2452 0 0 0
165 1 22.8678 5.39 15.2452 0 0 0
166 2 17.1509 6.7375 15.2452 0 0 0
105 1 15.2452 10.78 15.2452 0 0 0
177 1 22.8678 10.78 15.2452 0 0 0
178 2 17.1509 12.1275 15.2452 0 0 0
111 1 11.4339 16.17 3.81131 0 0 0
112 2 13.3396 17.5175 3.81131 0 0 0
119 1 11.4339 16.17 19.0565 0 0 0
120 2 13.3396 17.5175 19.0565 0 0 0
123 1 11.4339 21.56 3.81131 0 0 0
124 2 13.3396 22.9075 3.81131 0 0 0
131 1 11.4339 21.56 19.0565 0 0 0
132 2 13.3396 22.9075 19.0565 0 0 0
181 1 15.2452 16.17 0 0 0 0
182 2 17.1509 17.5175 0 0 0 0
183 1 19.0565 16.17 3.81131 0 0 0
184 2 20.9622 17.5175 3.81131 0 0 0
191 1 19.0565 16.17 19.0565 0 0 0
192 2 20.9622 17.5175 19.0565 0 0 0
193 1 15.2452 21.56 0 0 0 0
194 2 17.1509 22.9075 0 0 0 0
195 1 19.0565 21.56 3.81131 0 0 0
196 2 20.9622 22.9075 3.81131 0 0 0
203 1 19.0565 21.56 19.0565 0 0 0
204 2 20.9622 22.9075 19.0565 0 0 0
253 1 22.8678 16.17 0 0 0 0
265 1 22.8678 21.56 0 0 0 0
135 1 11.4339 26.95 3.81131 0 0 0
136 2 13.3396 28.2975 3.81131 0 0 0
143 1 11.4339 26.95 19.0565 0 0 0
144 2 13.3396 28.2975 19.0565 0 0 0
205 1 15.2452 26.95 0 0 0 0
206 2 17.1509 28.2975 0 0 0 0
207 1 19.0565 26.95 3.81131 0 0 0
208 2 20.9622 28.2975 3.81131 0 0 0
215 1 19.0565 26.95 19.0565 0 0 0
216 2 20.9622 28.2975 19.0565 0 0 0
277 1 22.8678 26.95 0 0 0 0
113 1 15.2452 16.17 7.62261 0 0 0
115 1 11.4339 16.17 11.4339 0 0 0
116 2 13.3396 17.5175 11.4339 0 0 0
125 1 15.2452 21.56 7.62261 0 0 0
127 1 11.4339 21.56 11.4339 0 0 0
128 2 13.3396 22.9075 11.4339 0 0 0
185 1 22.8678 16.17 7.62261 0 0 0
186 2 17.1509 17.5175 7.62261 0 0 0
187 1 19.0565 16.17 11.4339 0 0 0
188 2 20.9622 17.5175 11.4339 0 0 0
197 1 22.8678 21.56 7.62261 0 0 0
198 2 17.1509 22.9075 7.62261 0 0 0
199 1 19.0565 21.56 11.4339 0 0 0
200 2 20.9622 22.9075 11.4339 0 0 0
137 1 15.2452 26.95 7.62261 0 0 0
139 1 11.4339 26.95 11.4339 0 0 0
140 2 13.3396 28.2975 11.4339 0 0 0
209 1 22.8678 26.95 7.62261 0 0 0
210 2 17.1509 28.2975 7.62261 0 0 0
211 1 19.0565 26.95 11.4339 0 0 0
212 2 20.9622 28.2975 11.4339 0 0 0
117 1 15.2452 16.17 15.2452 0 0 0
129 1 15.2452 21.56 15.2452 0 0 0
189 1 22.8678 16.17 15.2452 0 0 0
190 2 17.1509 17.5175 15.2452 0 0 0
201 1 22.8678 21.56 15.2452 0 0 0
202 2 17.1509 22.9075 15.2452 0 0 0
141 1 15.2452 26.95 15.2452 0 0 0
213 1 22.8678 26.95 15.2452 0 0 0
214 2 17.1509 28.2975 15.2452 0 0 0
218 2 24.7735 1.3475 0 0 0 0
219 1 26.6791 0 3.81131 0 0 0
220 2 28.5848 1.3475 3.81131 0 0 0
227 1 26.6791 0 19.0565 0 0 0
228 2 28.5848 1.3475 19.0565 0 0 0
230 2 24.7735 6.7375 0 0 0 0
231 1 26.6791 5.39 3.81131 0 0 0
232 2 28.5848 6.7375 3.81131 0 0 0
239 1 26.6791 5.39 19.0565 0 0 0
240 2 28.5848 6.7375 19.0565 0 0 0
289 1 30.4904 0 0 0 0 0
290 2 32.3961 1.3475 0 0 0 0
301 1 30.4904 5.39 0 0 0 0
302 2 32.3961 6.7375 0 0 0 0
242 2 24.7735 12.1275 0 0 0 0
243 1 26.6791 10.78 3.81131 0 0 0
244 2 28.5848 12.1275 3.81131 0 0 0
251 1 26.6791 10.78 19.0565 0 0 0
252 2 28.5848 12.1275 19.0565 0 0 0
313 1 30.4904 10.78 0 0 0 0
314 2 32.3961 12.1275 0 0 0 0
221 1 30.4904 0 7.62261 0 0 0
222 2 24.7735 1.3475 7.62261 0 0 0
223 1 26.6791 0 11.4339 0 0 0
224 2 28.5848 1.3475 11.4339 0 0 0
233 1 30.4904 5.39 7.62261 0 0 0
234 2 24.7735 6.7375 7.62261 0 0 0
235 1 26.6791 5.39 11.4339 0 0 0
236 2 28.5848 6.7375 11.4339 0 0 0
294 2 32.3961 1.3475 7.62261 0 0 0
306 2 32.3961 6.7375 7.62261 0 0 0
245 1 30.4904 10.78 7.62261 0 0 0
246 2 24.7735 12.1275 7.62261 0 0 0
247 1 26.6791 10.78 11.4339 0 0 0
248 2 28.5848 12.1275 11.4339 0 0 0
318 2 32.3961 12.1275 7.62261 0 0 0
225 1 30.4904 0 15.2452 0 0 0
226 2 24.7735 1.3475 15.2452 0 0 0
237 1 30.4904 5.39 15.2452 0 0 0
238 2 24.7735 6.7375 15.2452 0 0 0
298 2 32.3961 1.3475 15.2452 0 0 0
310 2 32.3961 6.7375 15.2452 0 0 0
249 1 30.4904 10.78 15.2452 0 0 0
250 2 24.7735 12.1275 15.2452 0 0 0
322 2 32.3961 12.1275 15.2452 0 0 0
254 2 24.7735 17.5175 0 0 0 0
255 1 26.6791 16.17 3.81131 0 0 0
256 2 28.5848 17.5175 3.81131 0 0 0
263 1 26.6791 16.17 19.0565 0 0 0
264 2 28.5848 17.5175 19.0565 0 0 0
266 2 24.7735 22.9075 0 0 0 0
267 1 26.6791 21.56 3.81131 0 0 0
268 2 28.5848 22.9075 3.81131 0 0 0
275 1 26.6791 21.56 19.0565 0 0 0
276 2 28.5848 22.9075 19.0565 0 0 0
325 1 30.4904 16.17 0 0 0 0
326 2 32.3961 17.5175 0 0 0 0
337 1 30.4904 21.56 0 0 0 0
338 2 32.3961 22.9075 0 0 0 0
278 2 24.7735 28.2975 0 0 0 0
279 1 26.6791 26.95 3.81131 0 0 0
280 2 28.5848 28.2975 3.81131 0 0 0
287 1 26.6791 26.95 19.0565 0 0 0
288 2 28.5848 28.2975 19.0565 0 0 0
349 1 30.4904 26.95 0 0 0 0
350 2 32.3961 28.2975 0 0 0 0
257 1 30.4904 16.17 7.62261 0 0 0
258 2 24.7735 17.5175 7.62261 0 0 0
259 1 26.6791 16.17 11.4339 0 0 0
260 2 28.5848 17.5175 11.4339 0 0 0
269 1 30.4904 21.56 7.62261 0 0 0
270 2 24.7735 22.9075 7.62261 0 0 0
271 1 26.6791 21.56 11.4339 0 0 0
272 2 28.5848 22.9075 11.4339 0 0 0
330 2 32.3961 17.5175 7.62261 0 0 0
342 2 32.3961 22.9075 7.62261 0 0 0
281 1 30.4904 26.95 7.62261 0 0 0
282 2 24.7735 28.2975 7.62261 0 0 0
283 1 26.6791 26.95 11.4339 0 0 0
284 2 28.5848 28.2975 11.4339 0 0 0
354 2 32.3961 28.2975 7.62261 0 0 0
261 1 30.4904 16.17 15.2452 0 0 0
262 2 24.7735 17.5175 15.2452 0 0 0
273 1 30.4904 21.56 15.2452 0 0 0
274 2 24.7735 22.9075 15.2452 0 0 0
334 2 32.3961 17.5175 15.2452 0 0 0
346 2 32.3961 22.9075 15.2452 0 0 0
285 1 30.4904 26.95 15.2452 0 0 0
286 2 24.7735 28.2975 15.2452 0 0 0
358 2 32.3961 28.2975 15.2452 0 0 0
291 1 34.3017 0 3.81131 0 0 0
292 2 36.2074 1.3475 3.81131 0 0 0
299 1 34.3017 0 19.0565 0 0 0
300 2 36.2074 1.3475 19.0565 0 0 0
303 1 34.3017 5.39 3.81131 0 0 0
304 2 36.2074 6.7375 3.81131 0 0 0
311 1 34.3017 5.39 19.0565 0 0 0
312 2 36.2074 6.7375 19.0565 0 0 0
361 1 38.1131 0 0 0 0 0
362 2 40.0187 1.3475 0 0 0 0
363 1 41.9244 0 3.81131 0 0 0
364 2 43.83 1.3475 3.81131 0 0 0
371 1 41.9244 0 19.0565 0 0 0
372 2 43.83 1.3475 19.0565 0 0 0
373 1 38.1131 5.39 0 0 0 0
374 2 40.0187 6.7375 0 0 0 0
375 1 41.9244 5.39 3.81131 0 0 0
376 2 43.83 6.7375 3.81131 0 0 0
383 1 41.9244 5.39 19.0565 0 0 0
384 2 43.83 6.7375 19.0565 0 0 0
315 1 34.3017 10.78 3.81131 0 0 0
316 2 36.2074 12.1275 3.81131 0 0 0
323 1 34.3017 10.78 19.0565 0 0 0
324 2 36.2074 12.1275 19.0565 0 0 0
385 1 38.1131 10.78 0 0 0 0
386 2 40.0187 12.1275 0 0 0 0
387 1 41.9244 10.78 3.81131 0 0 0
388 2 43.83 12.1275 3.81131 0 0 0
395 1 41.9244 10.78 19.0565 0 0 0
396 2 43.83 12.1275 19.0565 0 0 0
293 1 38.1131 0 7.62261 0 0 0
295 1 34.3017 0 11.4339 0 0 0
296 2 36.2074 1.3475 11.4339 0 0 0
305 1 38.1131 5.39 7.62261 0 0 0
307 1 34.3017 5.39 11.4339 0 0 0
308 2 36.2074 6.7375 11.4339 0 0 0
366 2 40.0187 1.3475 7.62261 0 0 0
367 1 41.9244 0 11.4339 0 0 0
368 2 43.83 1.3475 11.4339 0 0 0
378 2 40.0187 6.7375 7.62261 0 0 0
379 1 41.9244 5.39 11.4339 0 0 0
380 2 43.83 6.7375 11.4339 0 0 0
317 1 38.1131 10.78 7.62261 0 0 0
319 1 34.3017 10.78 11.4339 0 0 0
320 2 36.2074 12.1275 11.4339 0 0 0
390 2 40.0187 12.1275 7.62261 0 0 0
391 1 41.9244 10.78 11.4339 0 0 0
392 2 43.83 12.1275 11.4339 0 0 0
297 1 38.1131 0 15.2452 0 0 0
309 1 38.1131 5.39 15.2452 0 0 0
370 2 40.0187 1.3475 15.2452 0 0 0
382 2 40.0187 6.7375 15.2452 0 0 0
321 1 38.1131 10.78 15.2452 0 0 0
394 2 40.0187 12.1275 15.2452 0 0 0
327 1 34.3017 16.17 3.81131 0 0 0
328 2 36.2074 17.5175 3.81131 0 0 0
335 1 34.3017 16.17 19.0565 0 0 0
336 2 36.2074 17.5175 19.0565 0 0 0
339 1 34.3017 21.56 3.81131 0 0 0
340 2 36.2074 22.9075 3.81131 0 0 0
347 1 34.3017 21.56 19.0565 0 0 0
348 2 36.2074 22.9075 19.0565 0 0 0
397 1 38.1131 16.17 0 0 0 0
398 2 40.0187 17.5175 0 0 0 0
399 1 41.9244 16.17 3.81131 0 0 0
400 2 43.83 17.5175 3.81131 0 0 0
407 1 41.9244 16.17 19.0565 0 0 0
408 2 43.83 17.5175 19.0565 0 0 0
409 1 38.1131 21.56 0 0 0 0
410 2 40.0187 22.9075 0 0 0 0
411 1 41.9244 21.56 3.81131 0 0 0
412 2 43.83 22.9075 3.81131 0 0 0
419 1 41.9244 21.56 19.0565 0 0 0
420 2 43.83 22.9075 19.0565 0 0 0
351 1 34.3017 26.95 3.81131 0 0 0
352 2 36.2074 28.2975 3.81131 0 0 0
359 1 34.3017 26.95 19.0565 0 0 0
360 2 36.2074 28.2975 19.0565 0 0 0
421 1 38.1131 26.95 0 0 0 0
422 2 40.0187 28.2975 0 0 0 0
423 1 41.9244 26.95 3.81131 0 0 0
424 2 43.83 28.2975 3.81131 0 0 0
431 1 41.9244 26.95 19.0565 0 0 0
432 2 43.83 28.2975 19.0565 0 0 0
329 1 38.1131 16.17 7.62261 0 0 0
331 1 34.3017 16.17 11.4339 0 0 0
332 2 36.2074 17.5175 11.4339 0 0 0
341 1 38.1131 21.56 7.62261 0 0 0
343 1 34.3017 21.56 11.4339 0 0 0
344 2 36.2074 22.9075 11.4339 0 0 0
402 2 40.0187 17.5175 7.62261 0 0 0
403 1 41.9244 16.17 11.4339 0 0 0
404 2 43.83 17.5175 11.4339 0 0 0
414 2 40.0187 22.9075 7.62261 0 0 0
415 1 41.9244 21.56 11.4339 0 0 0
416 2 43.83 22.9075 11.4339 0 0 0
353 1 38.1131 26.95 7.62261 0 0 0
355 1 34.3017 26.95 11.4339 0 0 0
356 2 36.2074 28.2975 11.4339 0 0 0
426 2 40.0187 28.2975 7.62261 0 0 0
427 1 41.9244 26.95 11.4339 0 0 0
428 2 43.83 28.2975 11.4339 0 0 0
333 1 38.1131 16.17 15.2452 0 0 0
345 1 38.1131 21.56 15.2452 0 0 0
406 2 40.0187 17.5175 15.2452 0 0 0
418 2 40.0187 22.9075 15.2452 0 0 0
357 1 38.1131 26.95 15.2452 0 0 0
430 2 40.0187 28.2975 15.2452 0 0 0
ITEM: TIMESTEP
25
ITEM: NUMBER OF ATOMS
432
ITEM: BOX BOUNDS pp pp pp
0.0000000000000000e+00 4.5735666607145887e+01
0.0000000000000000e+00 3.2339999999999996e+01
0.0000000000000000e+00 1.9056527752977455e+01
ITEM: ATOMS id type xu yu zu vx vy vz
1 1 -0.125188 -0.00371471 0.883666 0 0 0
2 2 2.02871 1.35185 0.878966 0 0 0
3 1 3.63212 0.179737 4.53455 0 0 0
4 2 5.89745 1.1674 4.5345 0 0 0
11 1 3.68576 -0.00427342 18.1732 0 0 0
12 2 5.84052 1.35223 18.1777 0 0 0
13 1 -0.125188 5.38629 0.883666 0 0 0
14 2 2.02871 6.74185 0.878966 0 0 0
15 1 3.63212 5.56974 4.53455 0 0 0
16 2 5.89745 6.5574 4.5345 0 0 0
23 1 3.68576 5.38573 18.1732 0 0 0
24 2 5.84052 6.74223 18.1777 0 0 0
73 1 7.49748 -0.00368514 0.883666 0 0 0
74 2 9.65126 1.35182 0.87897 0 0 0
85 1 7.49748 5.38631 0.883666 0 0 0
86 2 9.65126 6.74182 0.87897 0 0 0
25 1 -0.125188 10.7763 0.883666 0 0 0
26 2 2.02871 12.1319 0.878966 0 0 0
27 1 3.63212 10.9597 4.53455 0 0 0
28 2 5.89745 11.9474 4.5345 0 0 0
35 1 3.68576 10.7757 18.1732 0 0 0
36 2 5.84052 12.1322 18.1777 0 0 0
97 1 7.49748 10.7763 0.883666 0 0 0
98 2 9.65126 12.1318 0.87897 0 0 0
5 1 7.4179 0.233602 7.32474 0 0 0
6 2 2.11094 1.11371 7.32385 0 0 0
7 1 3.60693 0.233451 11.7317 0 0 0
8 2 5.92257 1.11376 11.7324 0 0 0
17 1 7.4179 5.6236 7.32474 0 0 0
18 2 2.11094 6.50371 7.32385 0 0 0
19 1 3.60693 5.62345 11.7317 0 0 0
20 2 5.92257 6.50376 11.7324 0 0 0
78 2 9.73354 1.11371 7.32385 0 0 0
90 2 9.73354 6.50371 7.32385 0 0 0
365 1 -0.20472 0.233597 7.32475 0 0 0
377 1 -0.20472 5.6236 7.32475 0 0 0
29 1 7.4179 11.0136 7.32474 0 0 0
30 2 2.11094 11.8937 7.32385 0 0 0
31 1 3.60693 11.0135 11.7317 0 0 0
32 2 5.92257 11.8938 11.7324 0 0 0
102 2 9.73354 11.8937 7.32385 0 0 0
389 1 -0.20472 11.0136 7.32475 0 0 0
9 1 7.44375 0.179184 14.522 0 0 0
10 2 2.08553 1.16807 14.522 0 0 0
21 1 7.44375 5.56918 14.522 0 0 0
22 2 2.08553 6.55807 14.522 0 0 0
82 2 9.70812 1.16806 14.522 0 0 0
94 2 9.70812 6.55806 14.522 0 0 0
369 1 -0.17889 0.179175 14.522 0 0 0
381 1 -0.17889 5.56918 14.522 0 0 0
33 1 7.44375 10.9592 14.522 0 0 0
34 2 2.08553 11.9481 14.522 0 0 0
106 2 9.70812 11.9481 14.522 0 0 0
393 1 -0.17889 10.9592 14.522 0 0 0
37 1 -0.125188 16.1663 0.883666 0 0 0
38 2 2.02871 17.5219 0.878966 0 0 0
39 1 3.63212 16.3497 4.53455 0 0 0
40 2 5.89745 17.3374 4.5345 0 0 0
47 1 3.68576 16.1657 18.1732 0 0 0
48 2 5.84052 17.5222 18.1777 0 0 0
49 1 -0.125188 21.5563 0.883666 0 0 0
50 2 2.02871 22.9119 0.878966 0 0 0
51 1 3.63212 21.7397 4.53455 0 0 0
52 2 5.89745 22.7274 4.5345 0 0 0
59 1 3.68576 21.5557 18.1732 0 0 0
60 2 5.84052 22.9122 18.1777 0 0 0
109 1 7.49748 16.1663 0.883666 0 0 0
110 2 9.65126 17.5218 0.87897 0 0 0
121 1 7.49748 21.5563 0.883666 0 0 0
122 2 9.65126 22.9118 0.87897 0 0 0
61 1 -0.125188 26.9463 0.883666 0 0 0
62 2 2.02871 28.3019 0.878966 0 0 0
63 1 3.63212 27.1297 4.53455 0 0 0
64 2 5.89745 28.1174 4.5345 0 0 0
71 1 3.68576 26.9457 18.1732 0 0 0
72 2 5.84052 28.3022 18.1777 0 0 0
133 1 7.49748 26.9463 0.883666 0 0 0
134 2 9.65126 28.3018 0.87897 0 0 0
41 1 7.4179 16.4036 7.32474 0 0 0
42 2 2.11094 17.2837 7.32385 0 0 0
43 1 3.60693 16.4035 11.7317 0 0 0
44 2 5.92257 17.2838 11.7324 0 0 0
53 1 7.4179 21.7936 7.32474 0 0 0
54 2 2.11094 22.6737 7.32385 0 0 0
55 1 3.60693 21.7935 11.7317 0 0 0
56 2 5.92257 22.6738 11.7324 0 0 0
114 2 9.73354 17.2837 7.32385 0 0 0
126 2 9.73354 22.6737 7.32385 0 0 0
401 1 -0.20472 16.4036 7.32475 0 0 0
413 1 -0.20472 21.7936 7.32475 0 0 0
65 1 7.4179 27.1836 7.32474 0 0 0
66 2 2.11094 28.0637 7.32385 0 0 0
67 1 3.60693 27.1835 11.7317 0 0 0
68 2 5.92257 28.0638 11.7324 0 0 0
138 2 9.73354 28.0637 7.32385 0 0 0
425 1 -0.20472 27.1836 7.32475 0 0 0
45 1 7.44375 16.3492 14.522 0 0 0
46 2 2.08553 17.3381 14.522 0 0 0
57 1 7.44375 21.7392 14.522 0 0 0
58 2 2.08553 22.7281 14.522 0 0 0
118 2 9.70812 17.3381 14.522 0 0 0
130 2 9.70812 22.7281 14.522 0 0 0
405 1 -0.17889 16.3492 14.522 0 0 0
417 1 -0.17889 21.7392 14.522 0 0 0
69 1 7.44375 27.1292 14.522 0 0 0
70 2 2.08553 28.1181 14.522 0 0 0
142 2 9.70812 28.1181 14.522 0 0 0
429 1 -0.17889 27.1292 14.522 0 0 0
75 1 11.2547 0.179745 4.53454 0 0 0
76 2 13.52 1.1674 4.5345 0 0 0
83 1 11.3084 -0.00426708 18.1732 0 0 0
84 2 13.4631 1.35222 18.1777 0 0 0
87 1 11.2547 5.56974 4.53454 0 0 0
88 2 13.52 6.5574 4.5345 0 0 0
95 1 11.3084 5.38573 18.1732 0 0 0
96 2 13.4631 6.74222 18.1777 0 0 0
145 1 15.1201 -0.0036888 0.883666 0 0 0
146 2 17.2739 1.35182 0.87897 0 0 0
147 1 18.8774 0.179752 4.53455 0 0 0
148 2 21.1426 1.16739 4.5345 0 0 0
155 1 18.931 -0.00426615 18.1732 0 0 0
156 2 21.0857 1.35222 18.1777 0 0 0
157 1 15.1201 5.38631 0.883666 0 0 0
158 2 17.2739 6.74182 0.87897 0 0 0
159 1 18.8774 5.56975 4.53455 0 0 0
160 2 21.1426 6.55739 4.5345 0 0 0
167 1 18.931 5.38573 18.1732 0 0 0
168 2 21.0857 6.74222 18.1777 0 0 0
217 1 22.7428 -0.00364195 0.883673 0 0 0
229 1 22.7428 5.38636 0.883673 0 0 0
99 1 11.2547 10.9597 4.53454 0 0 0
100 2 13.52 11.9474 4.5345 0 0 0
107 1 11.3084 10.7757 18.1732 0 0 0
108 2 13.4631 12.1322 18.1777 0 0 0
169 1 15.1201 10.7763 0.883666 0 0 0
170 2 17.2739 12.1318 0.87897 0 0 0
171 1 18.8774 10.9598 4.53455 0 0 0
172 2 21.1426 11.9474 4.5345 0 0 0
179 1 18.931 10.7757 18.1732 0 0 0
180 2 21.0857 12.1322 18.1777 0 0 0
241 1 22.7428 10.7764 0.883673 0 0 0
77 1 15.0405 0.233606 7.32474 0 0 0
79 1 11.2296 0.233457 11.7317 0 0 0
80 2 13.5452 1.11376 11.7324 0 0 0
89 1 15.0405 5.62361 7.32474 0 0 0
91 1 11.2296 5.62346 11.7317 0 0 0
92 2 13.5452 6.50376 11.7324 0 0 0
149 1 22.6632 0.23363 7.32474 0 0 0
150 2 17.3561 1.1137 7.32385 0 0 0
151 1 18.8522 0.233467 11.7317 0 0 0
152 2 21.1677 1.11375 11.7324 0 0 0
161 1 22.6632 5.62363 7.32474 0 0 0
162 2 17.3561 6.5037 7.32385 0 0 0
163 1 18.8522 5.62347 11.7317 0 0 0
164 2 21.1677 6.50375 11.7324 0 0 0
101 1 15.0405 11.0136 7.32474 0 0 0
103 1 11.2296 11.0135 11.7317 0 0 0
104 2 13.5452 11.8938 11.7324 0 0 0
173 1 22.6632 11.0136 7.32474 0 0 0
174 2 17.3561 11.8937 7.32385 0 0 0
175 1 18.8522 11.0135 11.7317 0 0 0
176 2 21.1677 11.8937 11.7324 0 0 0
81 1 15.0664 0.179184 14.522 0 0 0
93 1 15.0664 5.56918 14.522 0 0 0
153 1 22.689 0.179217 14.522 0 0 0
154 2 17.3307 1.16806 14.522 0 0 0
165 1 22.689 5.56922 14.522 0 0 0
166 2 17.3307 6.55806 14.522 0 0 0
105 1 15.0664 10.9592 14.522 0 0 0
177 1 22.689 10.9592 14.522 0 0 0
178 2 17.3307 11.9481 14.522 0 0 0
111 1 11.2547 16.3497 4.53454 0 0 0
112 2 13.52 17.3374 4.5345 0 0 0
119 1 11.3084 16.1657 18.1732 0 0 0
120 2 13.4631 17.5222 18.1777 0 0 0
123 1 11.2547 21.7397 4.53454 0 0 0
124 2 13.52 22.7274 4.5345 0 0 0
131 1 11.3084 21.5557 18.1732 0 0 0
132 2 13.4631 22.9122 18.1777 0 0 0
181 1 15.1201 16.1663 0.883666 0 0 0
182 2 17.2739 17.5218 0.87897 0 0 0
183 1 18.8774 16.3498 4.53455 0 0 0
184 2 21.1426 17.3374 4.5345 0 0 0
191 1 18.931 16.1657 18.1732 0 0 0
192 2 21.0857 17.5222 18.1777 0 0 0
193 1 15.1201 21.5563 0.883666 0 0 0
194 2 17.2739 22.9118 0.87897 0 0 0
195 1 18.8774 21.7398 4.53455 0 0 0
196 2 21.1426 22.7274 4.5345 0 0 0
203 1 18.931 21.5557 18.1732 0 0 0
204 2 21.0857 22.9122 18.1777 0 0 0
253 1 22.7428 16.1664 0.883673 0 0 0
265 1 22.7428 21.5564 0.883673 0 0 0
135 1 11.2547 27.1297 4.53454 0 0 0
136 2 13.52 28.1174 4.5345 0 0 0
143 1 11.3084 26.9457 18.1732 0 0 0
144 2 13.4631 28.3022 18.1777 0 0 0
205 1 15.1201 26.9463 0.883666 0 0 0
206 2 17.2739 28.3018 0.87897 0 0 0
207 1 18.8774 27.1298 4.53455 0 0 0
208 2 21.1426 28.1174 4.5345 0 0 0
215 1 18.931 26.9457 18.1732 0 0 0
216 2 21.0857 28.3022 18.1777 0 0 0
277 1 22.7428 26.9464 0.883673 0 0 0
113 1 15.0405 16.4036 7.32474 0 0 0
115 1 11.2296 16.4035 11.7317 0 0 0
116 2 13.5452 17.2838 11.7324 0 0 0
125 1 15.0405 21.7936 7.32474 0 0 0
127 1 11.2296 21.7935 11.7317 0 0 0
128 2 13.5452 22.6738 11.7324 0 0 0
185 1 22.6632 16.4036 7.32474 0 0 0
186 2 17.3561 17.2837 7.32385 0 0 0
187 1 18.8522 16.4035 11.7317 0 0 0
188 2 21.1677 17.2837 11.7324 0 0 0
197 1 22.6632 21.7936 7.32474 0 0 0
198 2 17.3561 22.6737 7.32385 0 0 0
199 1 18.8522 21.7935 11.7317 0 0 0
200 2 21.1677 22.6737 11.7324 0 0 0
137 1 15.0405 27.1836 7.32474 0 0 0
139 1 11.2296 27.1835 11.7317 0 0 0
140 2 13.5452 28.0638 11.7324 0 0 0
209 1 22.6632 27.1836 7.32474 0 0 0
210 2 17.3561 28.0637 7.32385 0 0 0
211 1 18.8522 27.1835 11.7317 0 0 0
212 2 21.1677 28.0637 11.7324 0 0 0
117 1 15.0664 16.3492 14.522 0 0 0
129 1 15.0664 21.7392 14.522 0 0 0
189 1 22.689 16.3492 14.522 0 0 0
190 2 17.3307 17.3381 14.522 0 0 0
201 1 22.689 21.7392 14.522 0 0 0
202 2 17.3307 22.7281 14.522 0 0 0
141 1 15.0664 27.1292 14.522 0 0 0
213 1 22.689 27.1292 14.522 0 0 0
214 2 17.3307 28.1181 14.522 0 0 0
218 2 24.8964 1.35178 0.878975 0 0 0
219 1 26.5001 0.179779 4.53455 0 0 0
220 2 28.7652 1.16736 4.5345 0 0 0
227 1 26.5537 -0.00421379 18.1732 0 0 0
228 2 28.7082 1.35217 18.1777 0 0 0
230 2 24.8964 6.74178 0.878975 0 0 0
231 1 26.5001 5.56978 4.53455 0 0 0
232 2 28.7652 6.55736 4.5345 0 0 0
239 1 26.5537 5.38579 18.1732 0 0 0
240 2 28.7082 6.74217 18.1777 0 0 0
289 1 30.3654 -0.00364305 0.883675 0 0 0
290 2 32.519 1.35178 0.878973 0 0 0
301 1 30.3654 5.38636 0.883675 0 0 0
302 2 32.519 6.74178 0.878973 0 0 0
242 2 24.8964 12.1318 0.878975 0 0 0
243 1 26.5001 10.9598 4.53455 0 0 0
244 2 28.7652 11.9474 4.5345 0 0 0
251 1 26.5537 10.7758 18.1732 0 0 0
252 2 28.7082 12.1322 18.1777 0 0 0
313 1 30.3654 10.7764 0.883675 0 0 0
314 2 32.519 12.1318 0.878973 0 0 0
221 1 30.2858 0.233631 7.32474 0 0 0
222 2 24.9787 1.11368 7.32384 0 0 0
223 1 26.4749 0.233486 11.7317 0 0 0
224 2 28.7903 1.11373 11.7324 0 0 0
233 1 30.2858 5.62363 7.32474 0 0 0
234 2 24.9787 6.50368 7.32384 0 0 0
235 1 26.4749 5.62349 11.7317 0 0 0
236 2 28.7903 6.50373 11.7324 0 0 0
294 2 32.6013 1.11368 7.32384 0 0 0
306 2 32.6013 6.50368 7.32384 0 0 0
245 1 30.2858 11.0136 7.32474 0 0 0
246 2 24.9787 11.8937 7.32384 0 0 0
247 1 26.4749 11.0135 11.7317 0 0 0
248 2 28.7903 11.8937 11.7324 0 0 0
318 2 32.6013 11.8937 7.32384 0 0 0
225 1 30.3116 0.179218 14.522 0 0 0
226 2 24.9533 1.16802 14.522 0 0 0
237 1 30.3116 5.56922 14.522 0 0 0
238 2 24.9533 6.55802 14.522 0 0 0
298 2 32.5759 1.16803 14.522 0 0 0
310 2 32.5759 6.55803 14.522 0 0 0
249 1 30.3116 10.9592 14.522 0 0 0
250 2 24.9533 11.948 14.522 0 0 0
322 2 32.5759 11.948 14.522 0 0 0
254 2 24.8964 17.5218 0.878975 0 0 0
255 1 26.5001 16.3498 4.53455 0 0 0
256 2 28.7652 17.3374 4.5345 0 0 0
263 1 26.5537 16.1658 18.1732 0 0 0
264 2 28.7082 17.5222 18.1777 0 0 0
266 2 24.8964 22.9118 0.878975 0 0 0
267 1 26.5001 21.7398 4.53455 0 0 0
268 2 28.7652 22.7274 4.5345 0 0 0
275 1 26.5537 21.5558 18.1732 0 0 0
276 2 28.7082 22.9122 18.1777 0 0 0
325 1 30.3654 16.1664 0.883675 0 0 0
326 2 32.519 17.5218 0.878973 0 0 0
337 1 30.3654 21.5564 0.883675 0 0 0
338 2 32.519 22.9118 0.878973 0 0 0
278 2 24.8964 28.3018 0.878975 0 0 0
279 1 26.5001 27.1298 4.53455 0 0 0
280 2 28.7652 28.1174 4.5345 0 0 0
287 1 26.5537 26.9458 18.1732 0 0 0
288 2 28.7082 28.3022 18.1777 0 0 0
349 1 30.3654 26.9464 0.883675 0 0 0
350 2 32.519 28.3018 0.878973 0 0 0
257 1 30.2858 16.4036 7.32474 0 0 0
258 2 24.9787 17.2837 7.32384 0 0 0
259 1 26.4749 16.4035 11.7317 0 0 0
260 2 28.7903 17.2837 11.7324 0 0 0
269 1 30.2858 21.7936 7.32474 0 0 0
270 2 24.9787 22.6737 7.32384 0 0 0
271 1 26.4749 21.7935 11.7317 0 0 0
272 2 28.7903 22.6737 11.7324 0 0 0
330 2 32.6013 17.2837 7.32384 0 0 0
342 2 32.6013 22.6737 7.32384 0 0 0
281 1 30.2858 27.1836 7.32474 0 0 0
282 2 24.9787 28.0637 7.32384 0 0 0
283 1 26.4749 27.1835 11.7317 0 0 0
284 2 28.7903 28.0637 11.7324 0 0 0
354 2 32.6013 28.0637 7.32384 0 0 0
261 1 30.3116 16.3492 14.522 0 0 0
262 2 24.9533 17.338 14.522 0 0 0
273 1 30.3116 21.7392 14.522 0 0 0
274 2 24.9533 22.728 14.522 0 0 0
334 2 32.5759 17.338 14.522 0 0 0
346 2 32.5759 22.728 14.522 0 0 0
285 1 30.3116 27.1292 14.522 0 0 0
286 2 24.9533 28.118 14.522 0 0 0
358 2 32.5759 28.118 14.522 0 0 0
291 1 34.1226 0.179754 4.53455 0 0 0
292 2 36.3879 1.16739 4.5345 0 0 0
299 1 34.1762 -0.00427059 18.1732 0 0 0
300 2 36.331 1.35222 18.1777 0 0 0
303 1 34.1226 5.56975 4.53455 0 0 0
304 2 36.3879 6.55739 4.5345 0 0 0
311 1 34.1762 5.38573 18.1732 0 0 0
312 2 36.331 6.74222 18.1777 0 0 0
361 1 37.9879 -0.0036803 0.883671 0 0 0
362 2 40.1417 1.35182 0.878967 0 0 0
363 1 41.7452 0.179745 4.53455 0 0 0
364 2 44.0105 1.1674 4.5345 0 0 0
371 1 41.7989 -0.00425987 18.1732 0 0 0
372 2 43.9536 1.35221 18.1777 0 0 0
373 1 37.9879 5.38632 0.883671 0 0 0
374 2 40.1417 6.74182 0.878967 0 0 0
375 1 41.7452 5.56975 4.53455 0 0 0
376 2 44.0105 6.5574 4.5345 0 0 0
383 1 41.7989 5.38574 18.1732 0 0 0
384 2 43.9536 6.74221 18.1777 0 0 0
315 1 34.1226 10.9598 4.53455 0 0 0
316 2 36.3879 11.9474 4.5345 0 0 0
323 1 34.1762 10.7757 18.1732 0 0 0
324 2 36.331 12.1322 18.1777 0 0 0
385 1 37.9879 10.7763 0.883671 0 0 0
386 2 40.1417 12.1318 0.878967 0 0 0
387 1 41.7452 10.9597 4.53455 0 0 0
388 2 44.0105 11.9474 4.5345 0 0 0
395 1 41.7989 10.7757 18.1732 0 0 0
396 2 43.9536 12.1322 18.1777 0 0 0
293 1 37.9084 0.233605 7.32475 0 0 0
295 1 34.0974 0.233469 11.7317 0 0 0
296 2 36.413 1.11375 11.7324 0 0 0
305 1 37.9084 5.62361 7.32475 0 0 0
307 1 34.0974 5.62347 11.7317 0 0 0
308 2 36.413 6.50375 11.7324 0 0 0
366 2 40.224 1.1137 7.32385 0 0 0
367 1 41.72 0.233457 11.7317 0 0 0
368 2 44.0356 1.11376 11.7324 0 0 0
378 2 40.224 6.5037 7.32385 0 0 0
379 1 41.72 5.62346 11.7317 0 0 0
380 2 44.0356 6.50376 11.7324 0 0 0
317 1 37.9084 11.0136 7.32475 0 0 0
319 1 34.0974 11.0135 11.7317 0 0 0
320 2 36.413 11.8937 11.7324 0 0 0
390 2 40.224 11.8937 7.32385 0 0 0
391 1 41.72 11.0135 11.7317 0 0 0
392 2 44.0356 11.8938 11.7324 0 0 0
297 1 37.9342 0.179186 14.522 0 0 0
309 1 37.9342 5.56919 14.522 0 0 0
370 2 40.1986 1.16805 14.522 0 0 0
382 2 40.1986 6.55805 14.522 0 0 0
321 1 37.9342 10.9592 14.522 0 0 0
394 2 40.1986 11.9481 14.522 0 0 0
327 1 34.1226 16.3498 4.53455 0 0 0
328 2 36.3879 17.3374 4.5345 0 0 0
335 1 34.1762 16.1657 18.1732 0 0 0
336 2 36.331 17.5222 18.1777 0 0 0
339 1 34.1226 21.7398 4.53455 0 0 0
340 2 36.3879 22.7274 4.5345 0 0 0
347 1 34.1762 21.5557 18.1732 0 0 0
348 2 36.331 22.9122 18.1777 0 0 0
397 1 37.9879 16.1663 0.883671 0 0 0
398 2 40.1417 17.5218 0.878967 0 0 0
399 1 41.7452 16.3497 4.53455 0 0 0
400 2 44.0105 17.3374 4.5345 0 0 0
407 1 41.7989 16.1657 18.1732 0 0 0
408 2 43.9536 17.5222 18.1777 0 0 0
409 1 37.9879 21.5563 0.883671 0 0 0
410 2 40.1417 22.9118 0.878967 0 0 0
411 1 41.7452 21.7397 4.53455 0 0 0
412 2 44.0105 22.7274 4.5345 0 0 0
419 1 41.7989 21.5557 18.1732 0 0 0
420 2 43.9536 22.9122 18.1777 0 0 0
351 1 34.1226 27.1298 4.53455 0 0 0
352 2 36.3879 28.1174 4.5345 0 0 0
359 1 34.1762 26.9457 18.1732 0 0 0
360 2 36.331 28.3022 18.1777 0 0 0
421 1 37.9879 26.9463 0.883671 0 0 0
422 2 40.1417 28.3018 0.878967 0 0 0
423 1 41.7452 27.1297 4.53455 0 0 0
424 2 44.0105 28.1174 4.5345 0 0 0
431 1 41.7989 26.9457 18.1732 0 0 0
432 2 43.9536 28.3022 18.1777 0 0 0
329 1 37.9084 16.4036 7.32475 0 0 0
331 1 34.0974 16.4035 11.7317 0 0 0
332 2 36.413 17.2837 11.7324 0 0 0
341 1 37.9084 21.7936 7.32475 0 0 0
343 1 34.0974 21.7935 11.7317 0 0 0
344 2 36.413 22.6737 11.7324 0 0 0
402 2 40.224 17.2837 7.32385 0 0 0
403 1 41.72 16.4035 11.7317 0 0 0
404 2 44.0356 17.2838 11.7324 0 0 0
414 2 40.224 22.6737 7.32385 0 0 0
415 1 41.72 21.7935 11.7317 0 0 0
416 2 44.0356 22.6738 11.7324 0 0 0
353 1 37.9084 27.1836 7.32475 0 0 0
355 1 34.0974 27.1835 11.7317 0 0 0
356 2 36.413 28.0637 11.7324 0 0 0
426 2 40.224 28.0637 7.32385 0 0 0
427 1 41.72 27.1835 11.7317 0 0 0
428 2 44.0356 28.0638 11.7324 0 0 0
333 1 37.9342 16.3492 14.522 0 0 0
345 1 37.9342 21.7392 14.522 0 0 0
406 2 40.1986 17.3381 14.522 0 0 0