ITEM: TIMESTEP
0
ITEM: NUMBER OF ATOMS
432
ITEM: BOX BOUNDS pp pp pp
0.0000000000000000e+00 4.5735666607145887e+01
0.0000000000000000e+00 3.2339999999999996e+01
0.0000000000000000e+00 1.9056527752977455e+01
ITEM: ATOMS id type xu yu zu vx vy vz
2 2 2.19363 0.689201 1.24931 0 0 0
3 1 3.52514 0.73521 3.75326 0 -0 0
4 2 6.00373 0.612694 3.75424 0 -0 -0
14 2 2.19363 6.0792 1.24931 0 0 -0
15 1 3.52514 6.12521 3.75326 0 0 0
16 2 6.00373 6.00269 3.75424 0 0 -0
73 1 7.33475 0.6585 1.25016 -0 -0 0
74 2 9.81646 0.689002 1.24933 0 0 -0
85 1 7.33475 6.0485 1.25016 0 0 0
86 2 9.81646 6.079 1.24933 -0 -0 -0
5 1 7.36125 0.541555 6.19573 0 -0 -0
6 2 2.16542 0.80515 6.19324 -0 -0 -0
17 1 7.36125 5.93156 6.19573 -0 0 0
18 2 2.16542 6.19515 6.19324 0 0 -0
78 2 9.78801 0.805079 6.1932 -0 0 0
90 2 9.78801 6.19508 6.1932 -0 0 0
75 1 11.1465 0.735094 3.75325 -0 0 -0
87 1 11.1465 6.12509 3.75325 -0 0 0
26 2 2.19363 11.4692 1.24931 0 0 0
27 1 3.52514 11.5152 3.75326 0 -0 0
28 2 6.00373 11.3927 3.75424 0 0 -0
97 1 7.33475 11.4385 1.25016 -0 -0 0
98 2 9.81646 11.469 1.24933 -0 -0 -0
29 1 7.36125 11.3216 6.19573 0 -0 0
30 2 2.16542 11.5851 6.19324 0 -0 -0
102 2 9.78801 11.5851 6.1932 0 -0 0
99 1 11.1465 11.5151 3.75325 -0 -0 -0
11 1 3.52402 0.658488 17.8065 0 0 -0
12 2 6.00504 0.689152 17.8071 0 0 -0
23 1 3.52402 6.04849 17.8065 -0 -0 -0
24 2 6.00504 6.07915 17.8071 -0 0 -0
7 1 3.55083 0.54165 12.8611 -0 0 -0
8 2 5.97708 0.805028 12.8628 0 0 -0
19 1 3.55083 5.93165 12.8611 0 -0 0
20 2 5.97708 6.19503 12.8628 -0 -0 0
94 2 9.81535 6.00269 15.3024 0 0 0
82 2 9.81535 0.612687 15.3024 -0 0 0
22 2 2.19262 6.00285 15.3025 0 0 -0
9 1 7.33595 0.735154 15.3032 0 -0 0
10 2 2.19262 0.612852 15.3025 0 -0 -0
21 1 7.33595 6.12515 15.3032 0 -0 -0
83 1 11.1456 0.658306 17.8065 -0 -0 -0
95 1 11.1456 6.04831 17.8065 -0 0 -0
79 1 11.1725 0.541525 12.8613 -0 0 -0
91 1 11.1725 5.93152 12.8613 0 -0 0
106 2 9.81535 11.3927 15.3024 0 0 -0
34 2 2.19262 11.3929 15.3025 -0 0 -0
33 1 7.33595 11.5152 15.3032 0 -0 -0
35 1 3.52402 11.4385 17.8065 -0 -0 -0
36 2 6.00504 11.4692 17.8071 -0 0 -0
31 1 3.55083 11.3217 12.8611 0 0 -0
32 2 5.97708 11.585 12.8628 0 0 0
107 1 11.1456 11.4383 17.8065 -0 -0 0
103 1 11.1725 11.3215 12.8613 -0 -0 0
38 2 2.19363 16.8592 1.24931 -0 0 -0
39 1 3.52514 16.9052 3.75326 -0 0 -0
40 2 6.00373 16.7827 3.75424 0 -0 0
50 2 2.19363 22.2492 1.24931 -0 -0 -0
51 1 3.52514 22.2952 3.75326 -0 -0 0
52 2 6.00373 22.1727 3.75424 -0 0 -0
109 1 7.33475 16.8285 1.25016 0 0 0
110 2 9.81646 16.859 1.24933 -0 -0 -0
121 1 7.33475 22.2185 1.25016 -0 0 -0
122 2 9.81646 22.249 1.24933 -0 0 -0
41 1 7.36125 16.7116 6.19573 -0 0 -0
42 2 2.16542 16.9751 6.19324 -0 -0 -0
53 1 7.36125 22.1016 6.19573 0 0 0
54 2 2.16542 22.3651 6.19324 0 0 0
114 2 9.78801 16.9751 6.1932 0 0 -0
126 2 9.78801 22.3651 6.1932 -0 0 0
111 1 11.1465 16.9051 3.75325 -0 -0 0
123 1 11.1465 22.2951 3.75325 -0 0 0
62 2 2.19363 27.6392 1.24931 -0 -0 -0
63 1 3.52514 27.6852 3.75326 0 0 -0
64 2 6.00373 27.5627 3.75424 -0 0 -0
133 1 7.33475 27.6085 1.25016 0 -0 0
134 2 9.81646 27.639 1.24933 0 -0 0
65 1 7.36125 27.4916 6.19573 0 0 0
66 2 2.16542 27.7551 6.19324 0 -0 -0
138 2 9.78801 27.7551 6.1932 0 -0 0
135 1 11.1465 27.6851 3.75325 -0 -0 0
47 1 3.52402 16.8285 17.8065 0 0 0
48 2 6.00504 16.8592 17.8071 0 -0 -0
59 1 3.52402 22.2185 17.8065 0 -0 0
60 2 6.00504 22.2492 17.8071 0 0 -0
43 1 3.55083 16.7117 12.8611 -0 0 0
44 2 5.97708 16.975 12.8628 0 -0 0
55 1 3.55083 22.1017 12.8611 -0 -0 0
56 2 5.97708 22.365 12.8628 0 0 0
130 2 9.81535 22.1727 15.3024 -0 -0 0
118 2 9.81535 16.7827 15.3024 -0 0 0
58 2 2.19262 22.1729 15.3025 0 0 -0
45 1 7.33595 16.9052 15.3032 -0 0 -0
46 2 2.19262 16.7829 15.3025 -0 0 0
57 1 7.33595 22.2952 15.3032 0 0 -0
119 1 11.1456 16.8283 17.8065 -0 0 -0
131 1 11.1456 22.2183 17.8065 -0 -0 0
115 1 11.1725 16.7115 12.8613 0 -0 -0
127 1 11.1725 22.1015 12.8613 0 0 0
142 2 9.81535 27.5627 15.3024 -0 0 0
70 2 2.19262 27.5629 15.3025 0 0 -0
69 1 7.33595 27.6852 15.3032 -0 0 -0
71 1 3.52402 27.6085 17.8065 0 -0 0
72 2 6.00504 27.6392 17.8071 0 -0 0
67 1 3.55083 27.4917 12.8611 0 -0 0
68 2 5.97708 27.755 12.8628 -0 -0 -0
143 1 11.1456 27.6083 17.8065 0 -0 -0
139 1 11.1725 27.4915 12.8613 0 -0 -0
76 2 13.6278 0.612516 3.75442 0 0 0
88 2 13.6278 6.00252 3.75442 0 -0 -0
145 1 14.9554 0.658314 1.25016 -0 0 -0
146 2 17.4413 0.688816 1.24939 0 -0 -0
147 1 18.7663 0.735017 3.75345 0 -0 0
148 2 21.2534 0.612225 3.7547 0 0 0
157 1 14.9554 6.04831 1.25016 0 0 -0
158 2 17.4413 6.07882 1.24939 -0 0 0
159 1 18.7663 6.12502 3.75345 -0 0 -0
160 2 21.2534 6.00222 3.7547 0 -0 0
217 1 22.5757 0.658171 1.25018 0 0 -0
229 1 22.5757 6.04817 1.25018 0 0 -0
77 1 14.9823 0.541358 6.19538 0 0 0
89 1 14.9823 5.93136 6.19538 0 -0 -0
149 1 22.6032 0.540941 6.19517 -0 0 -0
150 2 17.4123 0.805094 6.19287 -0 -0 0
161 1 22.6032 5.93094 6.19517 -0 0 0
162 2 17.4123 6.19509 6.19287 -0 -0 -0
100 2 13.6278 11.3925 3.75442 -0 -0 -0
169 1 14.9554 11.4383 1.25016 0 0 -0
170 2 17.4413 11.4688 1.24939 -0 0 0
171 1 18.7663 11.515 3.75345 0 0 -0
172 2 21.2534 11.3922 3.7547 -0 -0 -0
241 1 22.5757 11.4382 1.25018 0 -0 -0
101 1 14.9823 11.3214 6.19538 0 0 -0
173 1 22.6032 11.3209 6.19517 0 0 0
174 2 17.4123 11.5851 6.19287 0 0 0
84 2 13.629 0.689012 17.8071 -0 -0 0
166 2 17.4405 6.00241 15.3021 0 -0 -0
96 2 13.629 6.07901 17.8071 -0 0 0
155 1 18.7658 0.65805 17.8065 0 -0 0
156 2 21.2541 0.688873 17.807 0 0 -0
167 1 18.7658 6.04805 17.8065 0 -0 0
168 2 21.2541 6.07887 17.807 -0 -0 0
165 1 22.5763 6.12513 15.3028 0 -0 0
154 2 17.4405 0.612408 15.3021 -0 0 -0
153 1 22.5763 0.735128 15.3028 0 0 0
80 2 13.6006 0.805053 12.863 0 0 0
93 1 14.9563 6.12509 15.3031 -0 -0 0
92 2 13.6006 6.19505 12.863 0 -0 -0
151 1 18.7933 0.541173 12.8617 0 -0 0
152 2 21.2253 0.805164 12.8633 0 0 0
163 1 18.7933 5.93117 12.8617 -0 -0 0
164 2 21.2253 6.19516 12.8633 -0 0 -0
81 1 14.9563 0.735092 15.3031 -0 -0 0
178 2 17.4405 11.3924 15.3021 -0 -0 -0
177 1 22.5763 11.5151 15.3028 0 0 0
105 1 14.9563 11.5151 15.3031 -0 0 -0
108 2 13.629 11.469 17.8071 -0 -0 0
179 1 18.7658 11.4381 17.8065 0 0 0
180 2 21.2541 11.4689 17.807 -0 -0 -0
104 2 13.6006 11.5851 12.863 0 0 0
175 1 18.7933 11.3212 12.8617 0 -0 0
176 2 21.2253 11.5852 12.8633 -0 -0 0
112 2 13.6278 16.7825 3.75442 -0 0 -0
124 2 13.6278 22.1725 3.75442 -0 0 -0
181 1 14.9554 16.8283 1.25016 0 -0 0
182 2 17.4413 16.8588 1.24939 0 -0 -0
183 1 18.7663 16.905 3.75345 0 -0 0
184 2 21.2534 16.7822 3.7547 -0 -0 0
193 1 14.9554 22.2183 1.25016 0 -0 0
194 2 17.4413 22.2488 1.24939 -0 -0 -0
195 1 18.7663 22.295 3.75345 -0 -0 -0
196 2 21.2534 22.1722 3.7547 -0 0 0
253 1 22.5757 16.8282 1.25018 0 -0 0
265 1 22.5757 22.2182 1.25018 0 -0 0
113 1 14.9823 16.7114 6.19538 -0 -0 0
125 1 14.9823 22.1014 6.19538 0 -0 -0
185 1 22.6032 16.7109 6.19517 -0 0 -0
186 2 17.4123 16.9751 6.19287 0 0 -0
197 1 22.6032 22.1009 6.19517 -0 0 0
198 2 17.4123 22.3651 6.19287 -0 0 -0
136 2 13.6278 27.5625 3.75442 0 0 -0
205 1 14.9554 27.6083 1.25016 0 -0 0
206 2 17.4413 27.6388 1.24939 -0 0 0
207 1 18.7663 27.685 3.75345 0 -0 0
208 2 21.2534 27.5622 3.7547 0 0 -0
277 1 22.5757 27.6082 1.25018 0 -0 -0
137 1 14.9823 27.4914 6.19538 0 0 0
209 1 22.6032 27.4909 6.19517 -0 -0 0
210 2 17.4123 27.7551 6.19287 -0 0 0
120 2 13.629 16.859 17.8071 0 -0 0
202 2 17.4405 22.1724 15.3021 0 0 -0
132 2 13.629 22.249 17.8071 -0 -0 0
191 1 18.7658 16.8281 17.8065 0 0 0
192 2 21.2541 16.8589 17.807 -0 -0 -0
203 1 18.7658 22.2181 17.8065 -0 0 0
204 2 21.2541 22.2489 17.807 0 0 -0
201 1 22.5763 22.2951 15.3028 0 -0 0
190 2 17.4405 16.7824 15.3021 -0 0 -0
189 1 22.5763 16.9051 15.3028 -0 0 0
116 2 13.6006 16.9751 12.863 -0 0 -0
129 1 14.9563 22.2951 15.3031 0 0 -0
128 2 13.6006 22.3651 12.863 0 0 0
187 1 18.7933 16.7112 12.8617 -0 0 -0
188 2 21.2253 16.9752 12.8633 -0 0 -0
199 1 18.7933 22.1012 12.8617 0 0 0
200 2 21.2253 22.3652 12.8633 0 -0 0
117 1 14.9563 16.9051 15.3031 -0 -0 0
214 2 17.4405 27.5624 15.3021 -0 0 0
213 1 22.5763 27.6851 15.3028 0 -0 -0
141 1 14.9563 27.6851 15.3031 -0 -0 0
144 2 13.629 27.639 17.8071 -0 -0 -0
215 1 18.7658 27.6081 17.8065 0 -0 -0
216 2 21.2541 27.6389 17.807 -0 -0 0
140 2 13.6006 27.7551 12.863 -0 0 -0
211 1 18.7933 27.4912 12.8617 -0 -0 -0
212 2 21.2253 27.7552 12.8633 -0 -0 -0
218 2 25.066 0.688975 1.24938 0 0 -0
219 1 26.3872 0.735359 3.7537 -0 -0 0
220 2 28.8773 0.612599 3.75467 -0 -0 0
230 2 25.066 6.07897 1.24938 0 0 0
231 1 26.3872 6.12536 3.7537 0 -0 0
232 2 28.8773 6.0026 3.75467 -0 -0 -0
289 1 30.1981 0.65877 1.25023 0 -0 0
290 2 32.6884 0.68958 1.24932 -0 0 0
301 1 30.1981 6.04877 1.25023 -0 0 -0
302 2 32.6884 6.07958 1.24932 -0 -0 0
221 1 30.2256 0.54124 6.1952 -0 -0 0
222 2 25.0368 0.805494 6.19268 -0 0 0
233 1 30.2256 5.93124 6.1952 -0 0 0
234 2 25.0368 6.19549 6.19268 -0 0 -0
294 2 32.6591 0.805803 6.19266 0 -0 -0
306 2 32.6591 6.1958 6.19266 0 0 0
291 1 34.0112 0.735744 3.75373 -0 -0 -0
303 1 34.0112 6.12574 3.75373 0 -0 -0
242 2 25.066 11.469 1.24938 0 0 -0
243 1 26.3872 11.5154 3.7537 0 -0 0
244 2 28.8773 11.3926 3.75467 0 -0 -0
313 1 30.1981 11.4388 1.25023 -0 0 0
314 2 32.6884 11.4696 1.24932 -0 -0 -0
245 1 30.2256 11.3212 6.1952 -0 -0 0
246 2 25.0368 11.5855 6.19268 -0 -0 -0
318 2 32.6591 11.5858 6.19266 0 -0 -0
315 1 34.0112 11.5157 3.75373 0 0 -0
227 1 26.3869 0.658291 17.8065 0 -0 -0
228 2 28.8778 0.689418 17.8071 0 -0 0
239 1 26.3869 6.04829 17.8065 -0 -0 0
240 2 28.8778 6.07942 17.8071 -0 -0 -0
223 1 26.4147 0.540995 12.8617 0 -0 -0
224 2 28.8489 0.80574 12.8634 -0 0 -0
235 1 26.4147 5.93099 12.8617 -0 0 -0
236 2 28.8489 6.19574 12.8634 0 -0 -0
225 1 30.1986 0.73568 15.3027 -0 -0 -0
226 2 25.0657 0.612371 15.3019 -0 0 -0
237 1 30.1986 6.12568 15.3027 -0 0 -0
238 2 25.0657 6.00237 15.3019 -0 0 -0
298 2 32.6879 0.612928 15.3021 0 0 -0
310 2 32.6879 6.00293 15.3021 0 0 -0
299 1 34.0107 0.658855 17.8064 -0 0 0
311 1 34.0107 6.04886 17.8064 0 -0 -0
295 1 34.0383 0.541565 12.8617 -0 0 -0
307 1 34.0383 5.93157 12.8617 0 -0 -0
251 1 26.3869 11.4383 17.8065 0 0 -0
252 2 28.8778 11.4694 17.8071 0 -0 0
247 1 26.4147 11.321 12.8617 0 -0 0
248 2 28.8489 11.5857 12.8634 -0 0 0
249 1 30.1986 11.5157 15.3027 -0 -0 -0
250 2 25.0657 11.3924 15.3019 -0 -0 0
322 2 32.6879 11.3929 15.3021 -0 0 -0
323 1 34.0107 11.4389 17.8064 -0 -0 -0
319 1 34.0383 11.3216 12.8617 -0 -0 -0
254 2 25.066 16.859 1.24938 -0 0 0
255 1 26.3872 16.9054 3.7537 -0 0 -0
256 2 28.8773 16.7826 3.75467 -0 0 0
266 2 25.066 22.249 1.24938 0 0 -0
267 1 26.3872 22.2954 3.7537 0 0 0
268 2 28.8773 22.1726 3.75467 0 -0 -0
325 1 30.1981 16.8288 1.25023 -0 -0 -0
326 2 32.6884 16.8596 1.24932 -0 -0 0
337 1 30.1981 22.2188 1.25023 0 0 -0
338 2 32.6884 22.2496 1.24932 0 0 0
257 1 30.2256 16.7112 6.1952 -0 -0 -0
258 2 25.0368 16.9755 6.19268 0 -0 -0
269 1 30.2256 22.1012 6.1952 0 0 0
270 2 25.0368 22.3655 6.19268 0 0 0
330 2 32.6591 16.9758 6.19266 0 -0 -0
342 2 32.6591 22.3658 6.19266 0 -0 0
327 1 34.0112 16.9057 3.75373 -0 -0 -0
339 1 34.0112 22.2957 3.75373 0 0 0
278 2 25.066 27.639 1.24938 -0 0 -0
279 1 26.3872 27.6854 3.7537 -0 0 -0
280 2 28.8773 27.5626 3.75467 0 -0 -0
349 1 30.1981 27.6088 1.25023 -0 0 -0
350 2 32.6884 27.6396 1.24932 -0 0 -0
281 1 30.2256 27.4912 6.1952 -0 0 -0
282 2 25.0368 27.7555 6.19268 -0 0 -0
354 2 32.6591 27.7558 6.19266 -0 -0 0
351 1 34.0112 27.6857 3.75373 0 0 -0
263 1 26.3869 16.8283 17.8065 -0 0 -0
264 2 28.8778 16.8594 17.8071 -0 0 0
275 1 26.3869 22.2183 17.8065 0 -0 0
276 2 28.8778 22.2494 17.8071 0 0 0
259 1 26.4147 16.711 12.8617 -0 -0 -0
260 2 28.8489 16.9757 12.8634 -0 -0 0
271 1 26.4147 22.101 12.8617 0 0 0
272 2 28.8489 22.3657 12.8634 0 0 0
261 1 30.1986 16.9057 15.3027 -0 0 0
262 2 25.0657 16.7824 15.3019 0 -0 0
273 1 30.1986 22.2957 15.3027 -0 -0 0
274 2 25.0657 22.1724 15.3019 0 0 -0
334 2 32.6879 16.7829 15.3021 0 0 0
346 2 32.6879 22.1729 15.3021 0 -0 0
335 1 34.0107 16.8289 17.8064 -0 0 -0
347 1 34.0107 22.2189 17.8064 -0 -0 0
331 1 34.0383 16.7116 12.8617 -0 -0 -0
343 1 34.0383 22.1016 12.8617 0 -0 0
287 1 26.3869 27.6083 17.8065 0 0 -0
288 2 28.8778 27.6394 17.8071 -0 -0 -0
283 1 26.4147 27.491 12.8617 0 -0 0
284 2 28.8489 27.7557 12.8634 -0 -0 -0
285 1 30.1986 27.6857 15.3027 -0 -0 0
286 2 25.0657 27.5624 15.3019 0 -0 -0
358 2 32.6879 27.5629 15.3021 -0 0 0
359 1 34.0107 27.6089 17.8064 -0 0 -0
355 1 34.0383 27.4916 12.8617 -0 0 0
292 2 36.4981 0.612974 3.75442 -0 0 -0
304 2 36.4981 6.00297 3.75442 -0 -0 0
361 1 37.8229 0.658988 1.25024 -0 0 0
362 2 40.3086 0.689503 1.24931 0 0 -0
363 1 41.6368 0.735491 3.75344 -0 -0 -0
364 2 44.118 0.612891 3.75423 -0 -0 0
373 1 37.8229 6.04899 1.25024 -0 0 0
374 2 40.3086 6.0795 1.24931 0 -0 0
375 1 41.6368 6.12549 3.75344 -0 -0 0
376 2 44.118 6.00289 3.75423 0 -0 -0
293 1 37.8501 0.541663 6.19538 0 0 -0
305 1 37.8501 5.93166 6.19538 0 -0 -0
366 2 40.2801 0.805417 6.19289 -0 -0 0
378 2 40.2801 6.19542 6.19289 0 0 -0
1 1 -0.288 0.65876 1.25018 0 -0 -0
13 1 -0.288 6.04876 1.25018 -0 -0 -0
365 1 -0.261277 0.541675 6.19571 -0 0 -0
377 1 -0.261277 5.93167 6.19571 0 -0 -0
316 2 36.4981 11.393 3.75442 -0 0 0
385 1 37.8229 11.439 1.25024 0 0 -0
386 2 40.3086 11.4695 1.24931 0 -0 -0
387 1 41.6368 11.5155 3.75344 -0 -0 -0
388 2 44.118 11.3929 3.75423 0 -0 0
317 1 37.8501 11.3217 6.19538 -0 -0 0
390 2 40.2801 11.5854 6.19289 0 -0 -0
25 1 -0.288 11.4388 1.25018 0 0 0
389 1 -0.261277 11.3217 6.19571 0 -0 0
300 2 36.4989 0.689691 17.8071 0 -0 0
382 2 40.3079 6.00302 15.3024 0 0 -0
370 2 40.3079 0.613019 15.3024 0 0 -0
312 2 36.4989 6.07969 17.8071 0 0 -0
371 1 41.6358 0.658774 17.8065 -0 -0 -0
372 2 44.119 0.689448 17.8071 -0 -0 -0
383 1 41.6358 6.04877 17.8065 -0 0 -0
384 2 44.119 6.07945 17.8071 0 -0 0
309 1 37.8239 6.12567 15.3028 0 0 -0
297 1 37.8239 0.735671 15.3028 0 0 0
296 2 36.4703 0.805573 12.8633 -0 0 0
308 2 36.4703 6.19557 12.8633 0 0 0
367 1 41.663 0.541728 12.8614 -0 0 0
368 2 44.0911 0.80522 12.863 -0 -0 -0
379 1 41.663 5.93173 12.8614 -0 0 -0
380 2 44.0911 6.19522 12.863 -0 -0 0
381 1 -0.286685 6.12538 15.3031 -0 -0 -0
369 1 -0.286685 0.735378 15.3031 0 -0 0
394 2 40.3079 11.393 15.3024 -0 0 -0
321 1 37.8239 11.5157 15.3028 0 -0 0
324 2 36.4989 11.4697 17.8071 0 -0 -0
395 1 41.6358 11.4388 17.8065 -0 0 -0
396 2 44.119 11.4694 17.8071 0 0 -0
392 2 44.0911 11.5852 12.863 0 0 0
391 1 41.663 11.3217 12.8614 0 -0 -0
320 2 36.4703 11.5856 12.8633 -0 0 0
393 1 -0.286685 11.5154 15.3031 0 -0 -0
328 2 36.4981 16.783 3.75442 -0 0 0
340 2 36.4981 22.173 3.75442 0 -0 -0
397 1 37.8229 16.829 1.25024 0 0 0
398 2 40.3086 16.8595 1.24931 0 0 0
399 1 41.6368 16.9055 3.75344 -0 -0 -0
400 2 44.118 16.7829 3.75423 -0 -0 0
409 1 37.8229 22.219 1.25024 -0 0 0
410 2 40.3086 22.2495 1.24931 -0 -0 0
411 1 41.6368 22.2955 3.75344 -0 0 -0
412 2 44.118 22.1729 3.75423 -0 -0 0
329 1 37.8501 16.7117 6.19538 0 0 0
341 1 37.8501 22.1017 6.19538 -0 -0 0
402 2 40.2801 16.9754 6.19289 0 -0 -0
414 2 40.2801 22.3654 6.19289 0 0 -0
37 1 -0.288 16.8288 1.25018 0 -0 -0
49 1 -0.288 22.2188 1.25018 -0 0 -0
401 1 -0.261277 16.7117 6.19571 -0 0 0
413 1 -0.261277 22.1017 6.19571 -0 -0 -0
352 2 36.4981 27.563 3.75442 0 0 -0
421 1 37.8229 27.609 1.25024 -0 -0 0
422 2 40.3086 27.6395 1.24931 -0 0 -0
423 1 41.6368 27.6855 3.75344 -0 0 -0
424 2 44.118 27.5629 3.75423 0 0 0
353 1 37.8501 27.4917 6.19538 -0 0 -0
426 2 40.2801 27.7554 6.19289 -0 -0 -0
61 1 -0.288 27.6088 1.25018 0 -0 -0
425 1 -0.261277 27.4917 6.19571 -0 0 -0
336 2 36.4989 16.8597 17.8071 0 0 -0
418 2 40.3079 22.173 15.3024 0 -0 -0
406 2 40.3079 16.783 15.3024 -0 0 -0
348 2 36.4989 22.2497 17.8071 0 0 -0
407 1 41.6358 16.8288 17.8065 -0 -0 0
408 2 44.119 16.8594 17.8071 -0 -0 -0
419 1 41.6358 22.2188 17.8065 -0 -0 -0
420 2 44.119 22.2494 17.8071 0 0 0
345 1 37.8239 22.2957 15.3028 0 0 -0
333 1 37.8239 16.9057 15.3028 0 0 0
332 2 36.4703 16.9756 12.8633 0 0 -0
344 2 36.4703 22.3656 12.8633 -0 0 -0
403 1 41.663 16.7117 12.8614 -0 0 0
404 2 44.0911 16.9752 12.863 0 -0 0
415 1 41.663 22.1017 12.8614 -0 0 0
416 2 44.0911 22.3652 12.863 -0 0 0
417 1 -0.286685 22.2954 15.3031 0 0 -0
405 1 -0.286685 16.9054 15.3031 -0 0 -0
430 2 40.3079 27.563 15.3024 0 0 0
357 1 37.8239 27.6857 15.3028 0 -0 0
360 2 36.4989 27.6397 17.8071 0 -0 -0
431 1 41.6358 27.6088 17.8065 -0 0 -0
432 2 44.119 27.6394 17.8071 -0 0 -0
428 2 44.0911 27.7552 12.863 -0 -0 -0
427 1 41.663 27.4917 12.8614 -0 0 0
356 2 36.4703 27.7556 12.8633 0 0 0
429 1 -0.286685 27.6854 15.3031 0 -0 0
ITEM: TIMESTEP
1000
ITEM: NUMBER OF ATOMS
432
ITEM: BOX BOUNDS pp pp pp
0.0000000000000000e+00 4.5735666607145887e+01
0.0000000000000000e+00 3.2339999999999996e+01
0.0000000000000000e+00 1.9056527752977455e+01
ITEM: ATOMS id type xu yu zu vx vy vz
2 2 2.0438 0.898624 1.21738 -0.000102364 0.00282155 -0.00107575
3 1 3.69199 1.5449 3.47554 -0.000521266 4.82613e-05 -4.54051e-05
4 2 5.5989 -0.0893135 3.49788 -5.47411e-05 0.000510413 0.000777527
14 2 2.0438 6.28862 1.21738 -0.000102365 0.00282155 -0.00107575
15 1 3.69199 6.9349 3.47554 -0.000521267 4.82616e-05 -4.5405e-05
16 2 5.5989 5.30069 3.49788 -5.4741e-05 0.000510412 0.000777528
73 1 7.20681 0.549322 1.22819 0.000411284 -0.00132808 0.000298142
74 2 9.66584 0.898813 1.21682 -0.000108092 0.00281456 -0.0010773
85 1 7.20681 5.93932 1.22819 0.000411284 -0.00132808 0.000298142
86 2 9.66584 6.28881 1.21682 -0.000108093 0.00281456 -0.0010773
389 1 0.408024 10.3173 5.02572 9.48599e-05 -0.000230025 0.00115446
6 2 1.26981 1.91708 5.01256 0.000187661 -0.000261797 0.000748529
17 1 8.03053 4.9272 5.02597 9.32269e-05 -0.000229878 0.00115692
18 2 1.26981 7.30708 5.01256 0.000187663 -0.000261796 0.000748528
78 2 8.89223 1.91701 5.01293 0.000187681 -0.000262174 0.00075354
90 2 8.89223 7.30701 5.01293 0.000187681 -0.000262174 0.000753541
75 1 11.3138 1.54483 3.47524 -0.000526503 4.92974e-05 -4.74762e-05
87 1 11.3138 6.93483 3.47524 -0.000526503 4.92975e-05 -4.74757e-05
26 2 2.0438 11.6786 1.21738 -0.000102364 0.00282155 -0.00107575
27 1 3.69199 12.3249 3.47554 -0.000521266 4.82621e-05 -4.54053e-05
28 2 5.5989 10.6907 3.49788 -5.47409e-05 0.000510413 0.000777528
97 1 7.20681 11.3293 1.22819 0.000411284 -0.00132808 0.000298142
98 2 9.66584 11.6788 1.21682 -0.000108091 0.00281456 -0.0010773
29 1 8.03053 10.3172 5.02597 9.32268e-05 -0.000229879 0.00115692
30 2 1.26981 12.6971 5.01256 0.000187662 -0.000261795 0.000748528
102 2 8.89223 12.697 5.01293 0.00018768 -0.000262175 0.00075354
99 1 11.3138 12.3248 3.47524 -0.000526503 4.92965e-05 -4.74763e-05
11 1 3.39499 0.55266 17.8268 0.000392983 -0.00129672 -0.000306375
12 2 5.85526 0.891871 17.8373 -9.28085e-05 0.00276562 0.00106492
23 1 3.39499 5.94266 17.8268 0.000392984 -0.00129672 -0.000306376
24 2 5.85526 6.28187 17.8373 -9.28079e-05 0.00276562 0.00106492
377 1 0.408024 4.9273 5.02572 9.48596e-05 -0.000230025 0.00115446
8 2 5.08115 1.91702 14.0453 0.000185114 -0.000261747 -0.000738897
19 1 4.22014 4.92692 14.0327 0.000100246 -0.000233094 -0.00114035
20 2 5.08115 7.30702 14.0453 0.000185114 -0.000261747 -0.000738897
94 2 9.41081 5.30048 15.5586 -4.8679e-05 0.000508547 -0.000778558
82 2 9.41081 -0.0895208 15.5586 -4.86785e-05 0.000508547 -0.000778559
22 2 1.78708 5.30009 15.5587 -6.16993e-05 0.000501786 -0.000781989
9 1 7.50372 1.54438 15.5813 -0.000516424 4.11521e-05 4.2201e-05
10 2 1.78708 -0.0899108 15.5587 -6.16988e-05 0.000501785 -0.000781989
21 1 7.50372 6.93438 15.5813 -0.000516424 4.11521e-05 4.22005e-05
83 1 11.0187 0.553509 17.8268 0.000414806 -0.00128264 -0.0003042
95 1 11.0187 5.94351 17.8268 0.000414807 -0.00128264 -0.0003042
107 1 11.0187 11.3335 17.8268 0.000414806 -0.00128264 -0.0003042
32 2 5.08115 12.697 14.0453 0.000185114 -0.000261747 -0.000738897
106 2 9.41081 10.6905 15.5586 -4.86785e-05 0.000508547 -0.000778558
34 2 1.78708 10.6901 15.5587 -6.16993e-05 0.000501786 -0.000781989
33 1 7.50372 12.3244 15.5813 -0.000516424 4.11522e-05 4.22005e-05
35 1 3.39499 11.3327 17.8268 0.000392984 -0.00129672 -0.000306375
36 2 5.85526 11.6719 17.8373 -9.28075e-05 0.00276562 0.00106492
31 1 4.22014 10.3169 14.0327 0.000100245 -0.000233092 -0.00114035
41 1 8.03053 15.7072 5.02597 9.32262e-05 -0.000229878 0.00115692
43 1 4.22014 15.7069 14.0327 0.000100246 -0.000233093 -0.00114035
401 1 0.408024 15.7073 5.02572 9.48598e-05 -0.000230026 0.00115446
38 2 2.0438 17.0686 1.21738 -0.000102364 0.00282156 -0.00107575
39 1 3.69199 17.7149 3.47554 -0.000521267 4.82623e-05 -4.54055e-05
40 2 5.5989 16.0807 3.49788 -5.47409e-05 0.000510412 0.000777527
50 2 2.0438 22.4586 1.21738 -0.000102365 0.00282156 -0.00107575
51 1 3.69199 23.1049 3.47554 -0.000521267 4.82618e-05 -4.54051e-05
52 2 5.5989 21.4707 3.49788 -5.47415e-05 0.000510412 0.000777528
109 1 7.20681 16.7193 1.22819 0.000411284 -0.00132808 0.000298142
110 2 9.66584 17.0688 1.21682 -0.000108092 0.00281456 -0.0010773
121 1 7.20681 22.1093 1.22819 0.000411284 -0.00132808 0.000298142
122 2 9.66584 22.4588 1.21682 -0.000108091 0.00281456 -0.0010773
425 1 0.408024 26.4873 5.02572 9.48598e-05 -0.000230025 0.00115446
42 2 1.26981 18.0871 5.01256 0.000187662 -0.000261796 0.000748528
53 1 8.03053 21.0972 5.02597 9.32266e-05 -0.000229878 0.00115692
54 2 1.26981 23.4771 5.01256 0.000187661 -0.000261796 0.000748528
114 2 8.89223 18.087 5.01293 0.00018768 -0.000262174 0.00075354
126 2 8.89223 23.477 5.01293 0.00018768 -0.000262174 0.00075354
111 1 11.3138 17.7148 3.47524 -0.000526503 4.92969e-05 -4.7476e-05
123 1 11.3138 23.1048 3.47524 -0.000526503 4.9297e-05 -4.74761e-05
62 2 2.0438 27.8486 1.21738 -0.000102365 0.00282156 -0.00107575
63 1 3.69199 28.4949 3.47554 -0.000521268 4.82625e-05 -4.5405e-05
64 2 5.5989 26.8607 3.49788 -5.47416e-05 0.000510412 0.000777527
133 1 7.20681 27.4993 1.22819 0.000411284 -0.00132808 0.000298142
134 2 9.66584 27.8488 1.21682 -0.000108091 0.00281456 -0.0010773
65 1 8.03053 26.4872 5.02597 9.32272e-05 -0.000229878 0.00115692
66 2 1.26981 28.8671 5.01256 0.000187662 -0.000261797 0.000748527
138 2 8.89223 28.867 5.01293 0.00018768 -0.000262174 0.00075354
135 1 11.3138 28.4948 3.47524 -0.000526502 4.92968e-05 -4.74757e-05
47 1 3.39499 16.7227 17.8268 0.000392983 -0.00129672 -0.000306376
48 2 5.85526 17.0619 17.8373 -9.28087e-05 0.00276562 0.00106492
59 1 3.39499 22.1127 17.8268 0.000392983 -0.00129672 -0.000306375
60 2 5.85526 22.4519 17.8373 -9.28094e-05 0.00276562 0.00106492
413 1 0.408024 21.0973 5.02572 9.48598e-05 -0.000230026 0.00115446
44 2 5.08115 18.087 14.0453 0.000185114 -0.000261748 -0.000738897
55 1 4.22014 21.0969 14.0327 0.000100246 -0.000233094 -0.00114035
56 2 5.08115 23.477 14.0453 0.000185115 -0.000261747 -0.000738897
130 2 9.41081 21.4705 15.5586 -4.86785e-05 0.000508547 -0.000778558
118 2 9.41081 16.0805 15.5586 -4.86798e-05 0.000508547 -0.000778558
58 2 1.78708 21.4701 15.5587 -6.16998e-05 0.000501786 -0.000781989
45 1 7.50372 17.7144 15.5813 -0.000516424 4.11517e-05 4.22007e-05
46 2 1.78708 16.0801 15.5587 -6.16989e-05 0.000501786 -0.00078199
57 1 7.50372 23.1044 15.5813 -0.000516424 4.11519e-05 4.22007e-05
119 1 11.0187 16.7235 17.8268 0.000414806 -0.00128264 -0.000304199
131 1 11.0187 22.1135 17.8268 0.000414806 -0.00128264 -0.000304199
143 1 11.0187 27.5035 17.8268 0.000414806 -0.00128264 -0.000304199
68 2 5.08115 28.867 14.0453 0.000185114 -0.000261747 -0.000738898
142 2 9.41081 26.8605 15.5586 -4.86789e-05 0.000508547 -0.000778557
70 2 1.78708 26.8601 15.5587 -6.16997e-05 0.000501787 -0.00078199
69 1 7.50372 28.4944 15.5813 -0.000516424 4.11523e-05 4.22007e-05
71 1 3.39499 27.5027 17.8268 0.000392984 -0.00129672 -0.000306375
72 2 5.85526 27.8419 17.8373 -9.28088e-05 0.00276562 0.00106492
67 1 4.22014 26.4869 14.0327 0.000100246 -0.000233093 -0.00114035
5 1 8.03053 -0.462797 5.02597 9.32269e-05 -0.000229878 0.00115692
7 1 4.22014 -0.463077 14.0327 0.000100246 -0.000233093 -0.00114035
365 1 0.408024 -0.462704 5.02572 9.48594e-05 -0.000230026 0.00115446
76 2 13.2213 -0.0887189 3.49825 -6.09665e-05 0.000519596 0.000775584
88 2 13.2213 5.30128 3.49825 -6.09666e-05 0.000519595 0.000775585
145 1 14.8298 0.553057 1.22996 0.000422618 -0.00128346 0.000309658
146 2 17.2894 0.899377 1.21753 -0.000125879 0.00282792 -0.00107201
147 1 18.9371 1.54524 3.47618 -0.000513368 5.11561e-05 -3.87242e-05
148 2 20.8434 -0.0896714 3.49816 -7.22735e-05 0.000506761 0.000780827
157 1 14.8298 5.94306 1.22996 0.000422619 -0.00128346 0.000309658
158 2 17.2894 6.28938 1.21753 -0.00012588 0.00282792 -0.00107201
159 1 18.9371 6.93524 3.47618 -0.000513368 5.1156e-05 -3.8724e-05
160 2 20.8434 5.30033 3.49816 -7.22733e-05 0.000506761 0.000780827
217 1 22.4503 0.546083 1.22718 0.000421386 -0.00135273 0.000298411
229 1 22.4503 5.93608 1.22718 0.000421386 -0.00135273 0.000298412
91 1 11.8424 4.92667 14.0309 9.84644e-05 -0.000235285 -0.00115378
89 1 15.653 4.92703 5.0261 9.09022e-05 -0.000231471 0.00115423
176 2 20.3265 12.6973 14.0455 0.000184966 -0.000254474 -0.000734601
150 2 16.5146 1.91688 5.01265 0.000184486 -0.000261236 0.000748992
175 1 19.4656 10.3172 14.0332 0.000101043 -0.000230018 -0.00113262
162 2 16.5146 7.30688 5.01265 0.000184486 -0.000261236 0.000748992
100 2 13.2213 10.6913 3.49825 -6.09672e-05 0.000519596 0.000775584
169 1 14.8298 11.3331 1.22996 0.000422619 -0.00128346 0.000309658
170 2 17.2894 11.6794 1.21753 -0.000125879 0.00282792 -0.00107201
171 1 18.9371 12.3252 3.47618 -0.000513367 5.11553e-05 -3.87242e-05
172 2 20.8434 10.6903 3.49816 -7.22738e-05 0.000506761 0.000780827
241 1 22.4503 11.3261 1.22718 0.000421384 -0.00135273 0.000298411
101 1 15.653 10.317 5.0261 9.09016e-05 -0.000231471 0.00115423
104 2 12.7036 12.6967 14.0441 0.000184273 -0.000263229 -0.000750241
174 2 16.5146 12.6969 5.01265 0.000184485 -0.000261236 0.000748992
84 2 13.4785 0.897825 17.8391 -0.000106332 0.00281668 0.00107579
166 2 17.0317 5.30009 15.5579 -7.46395e-05 0.000504351 -0.000784174
96 2 13.4785 6.28783 17.8391 -0.000106332 0.00281668 0.00107579
155 1 18.6391 0.552306 17.8264 0.000402177 -0.00129255 -0.000311596
156 2 21.1 0.888543 17.8358 -0.000139714 0.00273388 0.00105373
167 1 18.6391 5.94231 17.8264 0.000402177 -0.00129255 -0.000311597
168 2 21.1 6.27854 17.8358 -0.000139713 0.00273388 0.00105373
165 1 22.749 6.93394 15.5812 -0.000503322 3.36211e-05 3.90081e-05
154 2 17.0317 -0.0899107 15.5579 -7.46394e-05 0.000504351 -0.000784173
153 1 22.749 1.54394 15.5812 -0.000503322 3.36216e-05 3.90074e-05
80 2 12.7036 1.91671 14.0441 0.000184274 -0.000263229 -0.000750241
93 1 15.1258 6.93545 15.5807 -0.000519209 5.1549e-05 3.73958e-05
92 2 12.7036 7.30671 14.0441 0.000184273 -0.000263229 -0.000750241
103 1 11.8424 10.3167 14.0309 9.84636e-05 -0.000235285 -0.00115378
152 2 20.3265 1.91732 14.0455 0.000184967 -0.000254473 -0.000734601
163 1 19.4656 4.92715 14.0332 0.000101042 -0.000230018 -0.00113262
164 2 20.3265 7.30732 14.0455 0.000184966 -0.000254474 -0.000734601
81 1 15.1258 1.54545 15.5807 -0.000519209 5.15485e-05 3.73959e-05
178 2 17.0317 10.6901 15.5579 -7.46401e-05 0.000504352 -0.000784174
177 1 22.749 12.3239 15.5812 -0.000503321 3.36215e-05 3.90077e-05
105 1 15.1258 12.3254 15.5807 -0.000519209 5.15493e-05 3.73953e-05
108 2 13.4785 11.6778 17.8391 -0.000106333 0.00281668 0.00107578
179 1 18.6391 11.3323 17.8264 0.000402177 -0.00129255 -0.000311597
180 2 21.1 11.6685 17.8358 -0.000139713 0.00273388 0.00105373
113 1 15.653 15.707 5.0261 9.09021e-05 -0.000231471 0.00115423
187 1 19.4656 15.7072 14.0332 0.000101042 -0.000230017 -0.00113262
115 1 11.8424 15.7067 14.0309 9.84637e-05 -0.000235284 -0.00115378
112 2 13.2213 16.0813 3.49825 -6.09654e-05 0.000519595 0.000775583
124 2 13.2213 21.4713 3.49825 -6.09658e-05 0.000519596 0.000775584
181 1 14.8298 16.7231 1.22996 0.000422619 -0.00128346 0.000309658
182 2 17.2894 17.0694 1.21753 -0.000125879 0.00282792 -0.00107201
183 1 18.9371 17.7152 3.47618 -0.000513368 5.11556e-05 -3.87249e-05
184 2 20.8434 16.0803 3.49816 -7.22738e-05 0.000506761 0.000780828
193 1 14.8298 22.1131 1.22996 0.000422619 -0.00128346 0.000309658
194 2 17.2894 22.4594 1.21753 -0.000125878 0.00282792 -0.00107201
195 1 18.9371 23.1052 3.47618 -0.000513368 5.11558e-05 -3.87244e-05
196 2 20.8434 21.4703 3.49816 -7.22737e-05 0.000506762 0.000780827
253 1 22.4503 16.7161 1.22718 0.000421385 -0.00135273 0.000298411
265 1 22.4503 22.1061 1.22718 0.000421385 -0.00135273 0.000298411
127 1 11.8424 21.0967 14.0309 9.84639e-05 -0.000235284 -0.00115378
125 1 15.653 21.097 5.0261 9.09023e-05 -0.000231471 0.00115423
212 2 20.3265 28.8673 14.0455 0.000184967 -0.000254474 -0.000734601
186 2 16.5146 18.0869 5.01265 0.000184486 -0.000261236 0.000748991
211 1 19.4656 26.4872 14.0332 0.000101041 -0.000230018 -0.00113262
198 2 16.5146 23.4769 5.01265 0.000184487 -0.000261236 0.000748991
136 2 13.2213 26.8613 3.49825 -6.09662e-05 0.000519597 0.000775583
205 1 14.8298 27.5031 1.22996 0.00042262 -0.00128346 0.000309658
206 2 17.2894 27.8494 1.21753 -0.000125879 0.00282792 -0.00107201
207 1 18.9371 28.4952 3.47618 -0.000513368 5.11559e-05 -3.87244e-05
208 2 20.8434 26.8603 3.49816 -7.22738e-05 0.000506761 0.000780827
277 1 22.4503 27.4961 1.22718 0.000421385 -0.00135273 0.000298411
137 1 15.653 26.487 5.0261 9.09022e-05 -0.000231471 0.00115423
140 2 12.7036 28.8667 14.0441 0.000184273 -0.000263229 -0.000750242
210 2 16.5146 28.8669 5.01265 0.000184486 -0.000261236 0.000748992
120 2 13.4785 17.0678 17.8391 -0.000106333 0.00281668 0.00107579
202 2 17.0317 21.4701 15.5579 -7.46392e-05 0.000504353 -0.000784174
132 2 13.4785 22.4578 17.8391 -0.000106334 0.00281668 0.00107578
191 1 18.6391 16.7223 17.8264 0.000402176 -0.00129255 -0.000311597
192 2 21.1 17.0585 17.8358 -0.000139713 0.00273388 0.00105373
203 1 18.6391 22.1123 17.8264 0.000402177 -0.00129255 -0.000311597
204 2 21.1 22.4485 17.8358 -0.000139713 0.00273388 0.00105373
201 1 22.749 23.1039 15.5812 -0.000503321 3.36213e-05 3.9007e-05
190 2 17.0317 16.0801 15.5579 -7.464e-05 0.000504352 -0.000784174
189 1 22.749 17.7139 15.5812 -0.000503321 3.36212e-05 3.90073e-05
116 2 12.7036 18.0867 14.0441 0.000184273 -0.000263229 -0.000750242
129 1 15.1258 23.1054 15.5807 -0.00051921 5.15488e-05 3.73957e-05
128 2 12.7036 23.4767 14.0441 0.000184273 -0.000263229 -0.000750241
139 1 11.8424 26.4867 14.0309 9.84644e-05 -0.000235284 -0.00115378