Created by /home/rramji/scripts/createLammpsInput.pl on Sat Aug 26 15:33:07 2023

          53 atoms
          52 bonds
          99 angles
         139 dihedrals
           9 impropers

           4 atom types
           6 bond types
           2 angle types
           5 dihedral types
           1 improper types

		   0.000000  27.133400 xlo xhi
		   0.000000  11.591500 ylo yhi
		   0.000000  11.837000 zlo zhi

Masses

    1 1.2011E+01 # C_R    
    2 1.2011E+01 # C_3    
    3 1.0080E+00 # H_     
    4 1.5999E+01 # O_2    

Pair Coeffs

    1    0.09510    3.47299 # C_R C_R 
    2    0.09510    3.47299 # C_3 C_3 
    3    0.01520    2.84642 # H_ H_ 
    4    0.09570    3.03315 # O_2 O_2 

Bond Coeffs

    1      350     1.46 # C_R C_3 
    2      700     1.25 # O_2 C_R 
    3      350     1.09 # C_3 H_ 
    4      350     1.53 # C_3 C_3 
    5      350     1.02 # C_R H_ 
    6      525     1.39 # C_R C_R 

Angle Coeffs

    1       50  109.471 # X C_3 X 
    2       50      120 # X C_R X 

Dihedral Coeffs

    1 0.0833333       -1        6 # C_R C_R C_3 X 
    2 0.0833333       -1        6 # O_2 C_R C_3 X 
    3 0.111111        1        3 # X C_3 C_3 X 
    4 0.166667        1        3 # X C_R C_3 X 
    5    3.125       -1        2 # X C_R C_R X 

Improper Coeffs

    1  13.3333        0 # C_R X X X 

Atoms

       1        1        1  0.90600000  -17.76830    2.93090    3.60220    0    0    0
       2        1        2 -0.26600000  -16.30860    3.25410    3.32040    0    0    0
       3        1        3  0.08000000  -15.81420    3.40200    4.27810    0    0    0
       4        1        3  0.08000000  -16.27970    4.18420    2.75680    0    0    0
       5        1        2 -0.16000000  -15.59820    2.14120    2.53100    0    0    0
       6        1        3  0.08000000  -15.66080    1.21310    3.10330    0    0    0
       7        1        2 -0.16000000  -14.12930    2.50330    2.27830    0    0    0
       8        1        3  0.08000000  -13.63020    2.65370    3.23720    0    0    0
       9        1        3  0.08000000  -14.08320    3.43160    1.70600    0    0    0
      10        1        2 -0.16000000  -13.42400    1.38380    1.50210    0    0    0
      11        1        2 -0.16000000  -11.95000    1.73710    1.26510    0    0    0
      12        1        3  0.08000000  -11.88810    2.66160    0.68780    0    0    0
      13        1        2 -0.16000000  -11.23820    0.61110    0.50360    0    0    0
      14        1        3  0.08000000  -11.73310    0.46050   -0.45740    0    0    0
      15        1        3  0.08000000  -11.31500   -0.31340    1.07880    0    0    0
      16        1        2 -0.02180000   -9.75170    0.90340    0.25330    0    0    0
      17        1        3  0.08000000   -9.65280    1.81140   -0.32660    0    0    0
      18        1        1 -0.28820000   -9.04890   -0.22810   -0.47150    0    0    0
      19        1        3  0.15000000   -9.64750   -0.73540   -1.18600    0    0    0
      20        1        1 -0.28820000   -7.77090   -0.59260   -0.27690    0    0    0
      21        1        3  0.15000000   -7.35800   -1.40730   -0.81710    0    0    0
      22        1        2 -0.02180000   -6.82110    0.07120    0.70040    0    0    0
      23        1        2 -0.16000000   -5.34530   -0.09780    0.31020    0    0    0
      24        1        3  0.08000000   -5.10860   -1.16300    0.28600    0    0    0
      25        1        2 -0.16000000   -4.38960    0.61070    1.28000    0    0    0
      26        1        3  0.08000000   -4.51560    0.19260    2.28070    0    0    0
      27        1        3  0.08000000   -4.63290    1.67450    1.31120    0    0    0
      28        1        2 -0.16000000   -2.93130    0.43820    0.83560    0    0    0
      29        1        3  0.08000000   -2.68180   -0.62450    0.81310    0    0    0
      30        1        2 -0.16000000   -1.98580    1.16410    1.80200    0    0    0
      31        1        3  0.08000000   -2.10500    0.74980    2.80500    0    0    0
      32        1        3  0.08000000   -2.23980    2.22570    1.82750    0    0    0
      33        1        2 -0.16000000   -0.52680    1.00260    1.35570    0    0    0
      34        1        3  0.08000000   -0.26960   -0.05810    1.33590    0    0    0
      35        1        2 -0.16000000    0.41660    1.73670    2.31690    0    0    0
      36        1        3  0.08000000    0.29900    1.33360    3.32480    0    0    0
      37        1        3  0.08000000    0.16690    2.79950    2.33330    0    0    0
      38        1        2 -0.24000000    1.87370    1.56890    1.87500    0    0    0
      39        1        3  0.08000000    2.14260    0.51150    1.86730    0    0    0
      40        1        3  0.08000000    2.52890    2.09590    2.56930    0    0    0
      41        1        3  0.08000000    2.01050    1.98310    0.87510    0    0    0
      42        1        3  0.08000000   -0.40800    1.41160    0.35040    0    0    0
      43        1        3  0.08000000   -2.80770    0.84980   -0.16810    0    0    0
      44        1        3  0.08000000   -5.20550    0.30980   -0.69280    0    0    0
      45        1        3  0.08000000   -6.98460   -0.33790    1.68850    0    0    0
      46        1        3  0.08000000   -7.03910    1.12790    0.77270    0    0    0
      47        1        3  0.08000000   -9.27580    1.10320    1.20310    0    0    0
      48        1        3  0.08000000  -11.45790    1.88970    2.22770    0    0    0
      49        1        3  0.08000000  -13.92500    1.24070    0.54270    0    0    0
      50        1        3  0.08000000  -13.48910    0.45610    2.07400    0    0    0
      51        1        3  0.08000000  -16.11750    2.00020    1.58080    0    0    0
      52        1        4 -0.90000000  -18.60450    3.32530    2.76290    0    0    0
      53        1        4 -0.90000000  -18.01180    2.29900    4.65100    0    0    0


Bonds

       1        1        1        2 
       2        2        1       52 
       3        2        1       53 
       4        3        2        3 
       5        3        2        4 
       6        4        2        5 
       7        3        5        6 
       8        4        5        7 
       9        3        5       51 
      10        3        7        8 
      11        3        7        9 
      12        4        7       10 
      13        4       10       11 
      14        3       10       49 
      15        3       10       50 
      16        3       11       12 
      17        4       11       13 
      18        3       11       48 
      19        3       13       14 
      20        3       13       15 
      21        4       13       16 
      22        3       16       17 
      23        1       16       18 
      24        3       16       47 
      25        5       18       19 
      26        6       18       20 
      27        5       20       21 
      28        1       20       22 
      29        4       22       23 
      30        3       22       45 
      31        3       22       46 
      32        3       23       24 
      33        4       23       25 
      34        3       23       44 
      35        3       25       26 
      36        3       25       27 
      37        4       25       28 
      38        3       28       29 
      39        4       28       30 
      40        3       28       43 
      41        3       30       31 
      42        3       30       32 
      43        4       30       33 
      44        3       33       34 
      45        4       33       35 
      46        3       33       42 
      47        3       35       36 
      48        3       35       37 
      49        4       35       38 
      50        3       38       39 
      51        3       38       40 
      52        3       38       41 

Angles

       1        1        3        2        1 
       2        1        4        2        1 
       3        1        4        2        3 
       4        1        5        2        1 
       5        1        5        2        3 
       6        1        5        2        4 
       7        1        5        7       10 
       8        1        6        5        2 
       9        1        6        5       51 
      10        1        7        5        2 
      11        1        7        5        6 
      12        1        7        5       51 
      13        1        7       10       11 
      14        1        7       10       49 
      15        1        7       10       50 
      16        1        8        7        5 
      17        1        8        7       10 
      18        1        9        7        5 
      19        1        9        7        8 
      20        1        9        7       10 
      21        1       12       11       10 
      22        1       13       11       10 
      23        1       13       11       12 
      24        1       14       13       11 
      25        1       15       13       11 
      26        1       15       13       14 
      27        1       16       13       11 
      28        1       16       13       14 
      29        1       16       13       15 
      30        1       17       16       13 
      31        1       18       16       13 
      32        1       18       16       17 
      33        2       19       18       16 
      34        2       20       18       16 
      35        2       20       18       19 
      36        2       21       20       18 
      37        2       22       20       18 
      38        2       22       20       21 
      39        1       23       22       20 
      40        1       24       23       22 
      41        1       25       23       22 
      42        1       25       23       24 
      43        1       26       25       23 
      44        1       27       25       23 
      45        1       27       25       26 
      46        1       28       25       23 
      47        1       28       25       26 
      48        1       28       25       27 
      49        1       29       28       25 
      50        1       30       28       25 
      51        1       30       28       29 
      52        1       31       30       28 
      53        1       32       30       28 
      54        1       32       30       31 
      55        1       33       30       28 
      56        1       33       30       31 
      57        1       33       30       32 
      58        1       34       33       30 
      59        1       35       33       30 
      60        1       35       33       34 
      61        1       36       35       33 
      62        1       37       35       33 
      63        1       37       35       36 
      64        1       38       35       33 
      65        1       38       35       36 
      66        1       38       35       37 
      67        1       39       38       35 
      68        1       40       38       35 
      69        1       40       38       39 
      70        1       41       38       35 
      71        1       41       38       39 
      72        1       41       38       40 
      73        1       42       33       30 
      74        1       42       33       34 
      75        1       42       33       35 
      76        1       43       28       25 
      77        1       43       28       29 
      78        1       43       28       30 
      79        1       44       23       22 
      80        1       44       23       24 
      81        1       44       23       25 
      82        1       45       22       20 
      83        1       45       22       23 
      84        1       46       22       20 
      85        1       46       22       23 
      86        1       46       22       45 
      87        1       47       16       13 
      88        1       47       16       17 
      89        1       47       16       18 
      90        1       48       11       10 
      91        1       48       11       12 
      92        1       48       11       13 
      93        1       49       10       11 
      94        1       50       10       11 
      95        1       50       10       49 
      96        1       51        5        2 
      97        2       52        1        2 
      98        2       53        1        2 
      99        2       53        1       52 

Dihedrals

       1        3        2        5        7       10 
       2        2        5        2        1       52 
       3        3        5        7       10       11 
       4        3        5        7       10       49 
       5        3        5        7       10       50 
       6        3        6        5        2        1 
       7        3        6        5        2        3 
       8        3        6        5        2        4 
       9        3        6        5        7       10 
      10        3        7        5        2        1 
      11        3        7        5        2        3 
      12        3        7        5        2        4 
      13        3        7       10       11       12 
      14        3        7       10       11       13 
      15        3        7       10       11       48 
      16        3        8        7        5        2 
      17        3        8        7        5        6 
      18        3        8        7        5       51 
      19        3        8        7       10       11 
      20        3        8        7       10       49 
      21        3        8        7       10       50 
      22        3        9        7        5        2 
      23        3        9        7        5        6 
      24        3        9        7        5       51 
      25        3        9        7       10       11 
      26        3        9        7       10       49 
      27        3        9        7       10       50 
      28        3       14       13       11       10 
      29        3       14       13       11       12 
      30        3       15       13       11       10 
      31        3       15       13       11       12 
      32        3       16       13       11       10 
      33        3       16       13       11       12 
      34        3       17       16       13       11 
      35        3       17       16       13       14 
      36        3       17       16       13       15 
      37        3       18       16       13       11 
      38        3       18       16       13       14 
      39        3       18       16       13       15 
      40        4       19       18       16       13 
      41        4       19       18       16       17 
      42        1       20       18       16       13 
      43        1       20       18       16       17 
      44        5       21       20       18       16 
      45        5       21       20       18       19 
      46        5       22       20       18       16 
      47        5       22       20       18       19 
      48        1       23       22       20       18 
      49        4       23       22       20       21 
      50        3       24       23       22       20 
      51        3       25       23       22       20 
      52        3       26       25       23       22 
      53        3       26       25       23       24 
      54        3       27       25       23       22 
      55        3       27       25       23       24 
      56        3       28       25       23       22 
      57        3       28       25       23       24 
      58        3       29       28       25       23 
      59        3       29       28       25       26 
      60        3       29       28       25       27 
      61        3       30       28       25       23 
      62        3       30       28       25       26 
      63        3       30       28       25       27 
      64        3       31       30       28       25 
      65        3       31       30       28       29 
      66        3       32       30       28       25 
      67        3       32       30       28       29 
      68        3       33       30       28       25 
      69        3       33       30       28       29 
      70        3       34       33       30       28 
      71        3       34       33       30       31 
      72        3       34       33       30       32 
      73        3       35       33       30       28 
      74        3       35       33       30       31 
      75        3       35       33       30       32 
      76        3       36       35       33       30 
      77        3       36       35       33       34 
      78        3       37       35       33       30 
      79        3       37       35       33       34 
      80        3       38       35       33       30 
      81        3       38       35       33       34 
      82        3       39       38       35       33 
      83        3       39       38       35       36 
      84        3       39       38       35       37 
      85        3       40       38       35       33 
      86        3       40       38       35       36 
      87        3       40       38       35       37 
      88        3       41       38       35       33 
      89        3       41       38       35       36 
      90        3       41       38       35       37 
      91        3       42       33       30       28 
      92        3       42       33       30       31 
      93        3       42       33       30       32 
      94        3       42       33       35       36 
      95        3       42       33       35       37 
      96        3       42       33       35       38 
      97        3       43       28       25       23 
      98        3       43       28       25       26 
      99        3       43       28       25       27 
     100        3       43       28       30       31 
     101        3       43       28       30       32 
     102        3       43       28       30       33 
     103        3       44       23       22       20 
     104        3       44       23       25       26 
     105        3       44       23       25       27 
     106        3       44       23       25       28 
     107        1       45       22       20       18 
     108        4       45       22       20       21 
     109        3       45       22       23       24 
     110        3       45       22       23       25 
     111        3       45       22       23       44 
     112        1       46       22       20       18 
     113        4       46       22       20       21 
     114        3       46       22       23       24 
     115        3       46       22       23       25 
     116        3       46       22       23       44 
     117        3       47       16       13       11 
     118        3       47       16       13       14 
     119        3       47       16       13       15 
     120        4       47       16       18       19 
     121        1       47       16       18       20 
     122        3       48       11       13       14 
     123        3       48       11       13       15 
     124        3       48       11       13       16 
     125        3       49       10       11       12 
     126        3       49       10       11       13 
     127        3       49       10       11       48 
     128        3       50       10       11       12 
     129        3       50       10       11       13 
     130        3       50       10       11       48 
     131        3       51        5        2        1 
     132        3       51        5        2        3 
     133        3       51        5        2        4 
     134        3       51        5        7       10 
     135        2       52        1        2        3 
     136        2       52        1        2        4 
     137        2       53        1        2        3 
     138        2       53        1        2        4 
     139        2       53        1        2        5 

Impropers

       1        1        1        2       52       53 
       2        1        1       53        2       52 
       3        1        1       52       53        2 
       4        1       18       16       19       20 
       5        1       18       20       16       19 
       6        1       18       19       20       16 
       7        1       20       18       21       22 
       8        1       20       22       18       21 
       9        1       20       21       22       18 
