Created by /home/rramji/scripts/createLammpsInput.pl on Tue Mar  7 11:24:46 2023

         122 atoms
         123 bonds
         228 angles
         329 dihedrals
          48 impropers

           8 atom types
          13 bond types
           5 angle types
          11 dihedral types
           1 improper types

		   0.000000  60.000000 xlo xhi
		   0.000000  60.000000 ylo yhi
		   0.000000  60.000000 zlo zhi

Masses

    1 1.2011E+01 # C_3    
    2 1.4007E+01 # N_3    
    3 1.2011E+01 # C_R    
    4 1.5999E+01 # O_2    
    5 3.2060E+01 # S_3    
    6 1.0080E+00 # H_     
    7 1.0080E+00 # H___A  
    8 1.5999E+01 # O_R    


Atoms

       1        1        1 -0.03580000   23.52343   33.65611   53.99145    0    0    0
       2        1        1 -0.03580000   23.15767   32.34818   53.26003    0    0    0
       3        1        1  0.01220000   24.48170   31.85062   52.64144    0    0    0
       4        1        2 -0.32990000   25.54171   32.46851   53.47921    0    0    0
       5        1        3  0.02970000   26.75328   32.51001   52.79901    0    0    0
       6        1        3 -0.04000000   27.64595   33.55293   53.03291    0    0    0
       7        1        3 -0.04920000   28.84173   33.59700   52.36376    0    0    0
       8        1        3  0.02240000   29.16474   32.59260   51.44522    0    0    0
       9        1        3  0.19310000   30.45013   32.63647   50.72402    0    0    0
      10        1        4 -0.28670000   31.38683   33.25918   51.18763    0    0    0
      11        1        3  0.02230000   30.60031   31.92567   49.44138    0    0    0
      12        1        3 -0.04990000   29.47189   31.62353   48.67105    0    0    0
      13        1        3 -0.04760000   29.61424   30.96493   47.48313    0    0    0
      14        1        3  0.00790000   30.88144   30.59334   47.03829    0    0    0
      15        1        5 -0.12520000   31.06089   29.74358   45.50519    0    0    0
      16        1        1 -0.00170000   32.85355   29.49372   45.38445    0    0    0
      17        1        1 -0.04370000   33.17912   28.75543   44.08449    0    0    0
      18        1        1 -0.05230000   34.69113   28.54470   43.98275    0    0    0
      19        1        1 -0.05300000   35.01671   27.80633   42.68284    0    0    0
      20        1        1 -0.05310000   36.52879   27.59555   42.58104    0    0    0
      21        1        1 -0.05310000   36.85436   26.85727   41.28107    0    0    0
      22        1        1 -0.05300000   38.36637   26.64653   41.17933    0    0    0
      23        1        1 -0.05230000   38.69201   25.90821   39.87930    0    0    0
      24        1        1 -0.04420000   40.20402   25.69747   39.77756    0    0    0
      25        1        1 -0.00930000   40.52960   24.95910   38.47765    0    0    0
      26        1        5 -0.17830000   42.32226   24.70924   38.35692    0    0    0
      27        1        3 -0.04760000   32.00717   30.89266   47.80321    0    0    0
      28        1        3 -0.04990000   31.87196   31.55667   48.98893    0    0    0
      29        1        3 -0.04920000   28.26581   31.54647   51.21262    0    0    0
      30        1        3 -0.04000000   27.07416   31.50552   51.88941    0    0    0
      31        1        1  0.01220000   25.03782   33.83887   53.75327    0    0    0
      32        1        6  0.02810000   22.96982   34.49420   53.56820    0    0    0
      33        1        6  0.02810000   23.31631   33.56431   55.05767    0    0    0
      34        1        6  0.02810000   22.77090   31.61439   53.96717    0    0    0
      35        1        6  0.02810000   22.42447   32.54425   52.47763    0    0    0
      36        1        6  0.04640000   24.54110   30.76350   52.69400    0    0    0
      37        1        6  0.04640000   24.56896   32.18756   51.60846    0    0    0
      38        1        6  0.06360000   27.39574   34.32821   53.74199    0    0    0
      39        1        6  0.06250000   29.53341   34.40623   52.54535    0    0    0
      40        1        6  0.06250000   28.48941   31.91069   49.01563    0    0    0
      41        1        6  0.06290000   28.74371   30.73140   46.88810    0    0    0
      42        1        6  0.03800000   33.35632   30.46079   45.38883    0    0    0
      43        1        6  0.03800000   33.19593   28.90240   46.23363    0    0    0
      44        1        6  0.02730000   32.67636   27.78828   44.08016    0    0    0
      45        1        6  0.02730000   32.83674   29.34675   43.23531    0    0    0
      46        1        6  0.02660000   35.19397   29.51173   43.98706    0    0    0
      47        1        6  0.02660000   35.03352   27.95330   44.83198    0    0    0
      48        1        6  0.02650000   34.51394   26.83925   42.67846    0    0    0
      49        1        6  0.02650000   34.67439   28.39769   41.83354    0    0    0
      50        1        6  0.02650000   37.03155   28.56271   42.58536    0    0    0
      51        1        6  0.02650000   36.87117   27.00423   43.43021    0    0    0
      52        1        6  0.02650000   36.35160   25.89011   41.27675    0    0    0
      53        1        6  0.02650000   36.51198   27.44858   40.43189    0    0    0
      54        1        6  0.02650000   38.86913   27.61352   41.18360    0    0    0
      55        1        6  0.02650000   38.70875   26.05521   42.02851    0    0    0
      56        1        6  0.02660000   38.18918   24.94108   39.87504    0    0    0
      57        1        6  0.02660000   38.34963   26.49952   39.03012    0    0    0
      58        1        6  0.02730000   40.70671   26.66450   39.78189    0    0    0
      59        1        6  0.02730000   40.54641   25.10607   40.62680    0    0    0
      60        1        6  0.03740000   40.02683   23.99202   38.47327    0    0    0
      61        1        6  0.03740000   40.18721   25.55050   37.62842    0    0    0
      62        1        7  0.10160000   42.45916   24.06059   37.18669    0    0    0
      63        1        6  0.06290000   32.98793   30.60336   47.45573    0    0    0
      64        1        6  0.06250000   32.74477   31.78834   49.58134    0    0    0
      65        1        6  0.06250000   28.51188   30.76966   50.50379    0    0    0
      66        1        6  0.06360000   26.37962   30.69803   51.71037    0    0    0
      67        1        6  0.04640000   25.21212   34.48687   52.89438    0    0    0
      68        1        6  0.04640000   25.51580   34.24875   54.64302    0    0    0
      69        2        8 -0.48060000   51.69133   31.14314    9.87050    0    0    0
      70        2        4 -0.25100000   53.00826   29.30980    9.62937    0    0    0
      71        2        1 -0.05300000   57.03368   31.44499    4.64838    0    0    0
      72        2        1 -0.05280000   58.20319   30.72100    3.97199    0    0    0
      73        2        1 -0.05300000   56.31375   30.58806    5.69257    0    0    0
      74        2        1 -0.04960000   57.83273   29.48735    3.14253    0    0    0
      75        2        1 -0.05260000   55.18159   31.32997    6.41108    0    0    0
      76        2        1 -0.05280000   52.30070   29.03272    3.40902    0    0    0
      77        2        1 -0.05310000   51.08735   29.83734    2.93614    0    0    0
      78        2        1 -0.04960000   53.26640   28.75547    2.25115    0    0    0
      79        2        1 -0.03480000   56.82815   29.78268    2.02608    0    0    0
      80        2        1 -0.04300000   54.51225   30.49495    7.50829    0    0    0
      81        2        1 -0.05330000   50.05376   30.08353    4.03921    0    0    0
      82        2        1 -0.03480000   54.51341   27.97709    2.68388    0    0    0
      83        2        3 -0.08790000   56.49909   28.53547    1.25751    0    0    0
      84        2        1 -0.05590000   50.59095   30.92180    5.20015    0    0    0
      85        2        3 -0.08790000   55.46704   27.73084    1.55100    0    0    0
      86        2        1  0.04480000   53.37693   31.24960    8.20222    0    0    0
      87        2        1 -0.06530000   49.53173   31.12665    6.27253    0    0    0
      88        2        3  0.30470000   52.70776   30.44762    9.29630    0    0    0
      89        2        6  0.02650000   56.31925   31.81003    3.90301    0    0    0
      90        2        6  0.02650000   57.43301   32.33819    5.14565    0    0    0
      91        2        6  0.02650000   58.71719   31.43803    3.31928    0    0    0
      92        2        6  0.02650000   58.93228   30.42376    4.73587    0    0    0
      93        2        6  0.02650000   57.04332   30.24401    6.43626    0    0    0
      94        2        6  0.02650000   55.89707   29.69262    5.22244    0    0    0
      95        2        6  0.02680000   57.44596   28.70565    3.80699    0    0    0
      96        2        6  0.02680000   58.75339   29.08152    2.70292    0    0    0
      97        2        6  0.02650000   55.57911   32.25101    6.85487    0    0    0
      98        2        6  0.02650000   54.42713   31.63168    5.67390    0    0    0
      99        2        6  0.02650000   51.96978   28.08354    3.84665    0    0    0
     100        2        6  0.02650000   52.84156   29.58149    4.18751    0    0    0
     101        2        6  0.02650000   50.59521   29.30003    2.11608    0    0    0
     102        2        6  0.02650000   51.41984   30.80005    2.52901    0    0    0
     103        2        6  0.02680000   52.74091   28.19239    1.46897    0    0    0
     104        2        6  0.02680000   53.56741   29.71025    1.80157    0    0    0
     105        2        6  0.03070000   57.25460   30.51519    1.32965    0    0    0
     106        2        6  0.03070000   55.91867   30.24454    2.41984    0    0    0
     107        2        6  0.02700000   54.12016   29.56744    7.07239    0    0    0
     108        2        6  0.02700000   55.26295   30.19782    8.25120    0    0    0
     109        2        6  0.02650000   49.69324   29.11880    4.41708    0    0    0
     110        2        6  0.02650000   49.18822   30.59263    3.59766    0    0    0
     111        2        6  0.03070000   55.00194   28.48841    3.51746    0    0    0
     112        2        6  0.03070000   54.20892   27.00189    3.08483    0    0    0
     113        2        6  0.05690000   57.14630   28.27623    0.42395    0    0    0
     114        2        6  0.02630000   51.44956   30.42599    5.66263    0    0    0
     115        2        6  0.02630000   50.93240   31.89581    4.83204    0    0    0
     116        2        6  0.05690000   55.29496   26.85231    0.93500    0    0    0
     117        2        6  0.03770000   52.61439   31.52590    7.46760    0    0    0
     118        2        6  0.03770000   53.77318   32.16526    8.65577    0    0    0
     119        2        6  0.02300000   49.20220   30.16844    6.68687    0    0    0
     120        2        6  0.02300000   48.65740   31.64521    5.86620    0    0    0
     121        2        6  0.02300000   49.93362   31.73032    7.09232    0    0    0
     122        2        7  0.29510000   51.24555   30.62468   10.57396    0    0    0


Bonds

       1        1        1        2 
       2        1        1       31 
       3        2        1       32 
       4        2        1       33 
       5        1        2        3 
       6        2        2       34 
       7        2        2       35 
       8        3        3        4 
       9        2        3       36 
      10        2        3       37 
      11        4        4        5 
      12        3        4       31 
      13        5        5        6 
      14        5        5       30 
      15        5        6        7 
      16        6        6       38 
      17        5        7        8 
      18        6        7       39 
      19        5        8        9 
      20        5        8       29 
      21        7        9       10 
      22        5        9       11 
      23        5       11       12 
      24        5       11       28 
      25        5       12       13 
      26        6       12       40 
      27        5       13       14 
      28        6       13       41 
      29        8       14       15 
      30        5       14       27 
      31        9       15       16 
      32        1       16       17 
      33        2       16       42 
      34        2       16       43 
      35        1       17       18 
      36        2       17       44 
      37        2       17       45 
      38        1       18       19 
      39        2       18       46 
      40        2       18       47 
      41        1       19       20 
      42        2       19       48 
      43        2       19       49 
      44        1       20       21 
      45        2       20       50 
      46        2       20       51 
      47        1       21       22 
      48        2       21       52 
      49        2       21       53 
      50        1       22       23 
      51        2       22       54 
      52        2       22       55 
      53        1       23       24 
      54        2       23       56 
      55        2       23       57 
      56        1       24       25 
      57        2       24       58 
      58        2       24       59 
      59        9       25       26 
      60        2       25       60 
      61        2       25       61 
      62       10       26       62 
      63        5       27       28 
      64        6       27       63 
      65        6       28       64 
      66        5       29       30 
      67        6       29       65 
      68        6       30       66 
      69        2       31       67 
      70        2       31       68 
      71       11       69       88 
      72       12       69      122 
      73        7       70       88 
      74        1       71       72 
      75        1       71       73 
      76        2       71       89 
      77        2       71       90 
      78        1       72       74 
      79        2       72       91 
      80        2       72       92 
      81        1       73       75 
      82        2       73       93 
      83        2       73       94 
      84        1       74       79 
      85        2       74       95 
      86        2       74       96 
      87        1       75       80 
      88        2       75       97 
      89        2       75       98 
      90        1       76       77 
      91        1       76       78 
      92        2       76       99 
      93        2       76      100 
      94        1       77       81 
      95        2       77      101 
      96        2       77      102 
      97        1       78       82 
      98        2       78      103 
      99        2       78      104 
     100       13       79       83 
     101        2       79      105 
     102        2       79      106 
     103        1       80       86 
     104        2       80      107 
     105        2       80      108 
     106        1       81       84 
     107        2       81      109 
     108        2       81      110 
     109       13       82       85 
     110        2       82      111 
     111        2       82      112 
     112        5       83       85 
     113        6       83      113 
     114        1       84       87 
     115        2       84      114 
     116        2       84      115 
     117        6       85      116 
     118       13       86       88 
     119        2       86      117 
     120        2       86      118 
     121        2       87      119 
     122        2       87      120 
     123        2       87      121 

Angles

       1        1        3        2        1 
       2        2        3        4       31 
       3        1        4        3        2 
       4        1        4        3       36 
       5        1        4        3       37 
       6        3        4        5       30 
       7        1        4       31        1 
       8        2        5        4        3 
       9        2        5        4       31 
      10        3        5        6       38 
      11        3        5       30       29 
      12        3        6        5        4 
      13        3        6        5       30 
      14        3        6        7       39 
      15        3        7        6        5 
      16        3        7        6       38 
      17        3        7        8       29 
      18        3        8        7        6 
      19        3        8        7       39 
      20        3        8        9       10 
      21        3        8        9       11 
      22        3        8       29       30 
      23        3        8       29       65 
      24        3        9        8        7 
      25        3        9        8       29 
      26        3        9       11       12 
      27        3        9       11       28 
      28        3       11        9       10 
      29        3       13       12       11 
      30        3       14       13       12 
      31        3       15       14       13 
      32        4       16       15       14 
      33        1       17       16       15 
      34        1       18       17       16 
      35        1       19       18       17 
      36        1       20       19       18 
      37        1       21       20       19 
      38        1       22       21       20 
      39        1       23       22       21 
      40        1       24       23       22 
      41        1       25       24       23 
      42        1       26       25       24 
      43        3       27       14       13 
      44        3       27       14       15 
      45        3       27       28       11 
      46        3       28       11       12 
      47        3       28       27       14 
      48        1       31        1        2 
      49        1       32        1        2 
      50        1       32        1       31 
      51        1       33        1        2 
      52        1       33        1       31 
      53        1       33        1       32 
      54        1       34        2        1 
      55        1       34        2        3 
      56        1       35        2        1 
      57        1       35        2        3 
      58        1       35        2       34 
      59        1       36        3        2 
      60        1       37        3        2 
      61        1       37        3       36 
      62        3       40       12       11 
      63        3       40       12       13 
      64        3       41       13       12 
      65        3       41       13       14 
      66        1       42       16       15 
      67        1       42       16       17 
      68        1       43       16       15 
      69        1       43       16       17 
      70        1       43       16       42 
      71        1       44       17       16 
      72        1       44       17       18 
      73        1       45       17       16 
      74        1       45       17       18 
      75        1       45       17       44 
      76        1       46       18       17 
      77        1       46       18       19 
      78        1       47       18       17 
      79        1       47       18       19 
      80        1       47       18       46 
      81        1       48       19       18 
      82        1       48       19       20 
      83        1       49       19       18 
      84        1       49       19       20 
      85        1       49       19       48 
      86        1       50       20       19 
      87        1       50       20       21 
      88        1       51       20       19 
      89        1       51       20       21 
      90        1       51       20       50 
      91        1       52       21       20 
      92        1       52       21       22 
      93        1       53       21       20 
      94        1       53       21       22 
      95        1       53       21       52 
      96        1       54       22       21 
      97        1       54       22       23 
      98        1       55       22       21 
      99        1       55       22       23 
     100        1       55       22       54 
     101        1       56       23       22 
     102        1       56       23       24 
     103        1       57       23       22 
     104        1       57       23       24 
     105        1       57       23       56 
     106        1       58       24       23 
     107        1       58       24       25 
     108        1       59       24       23 
     109        1       59       24       25 
     110        1       59       24       58 
     111        1       60       25       24 
     112        1       60       25       26 
     113        1       61       25       24 
     114        1       61       25       26 
     115        1       61       25       60 
     116        4       62       26       25 
     117        3       63       27       14 
     118        3       63       27       28 
     119        3       64       28       11 
     120        3       64       28       27 
     121        3       65       29       30 
     122        3       66       30        5 
     123        3       66       30       29 
     124        1       67       31        1 
     125        1       67       31        4 
     126        1       68       31        1 
     127        1       68       31        4 
     128        1       68       31       67 
     129        3       70       88       69 
     130        1       73       71       72 
     131        1       74       72       71 
     132        1       74       79      105 
     133        1       74       79      106 
     134        1       75       73       71 
     135        1       75       80      107 
     136        1       75       80      108 
     137        1       76       77      101 
     138        1       76       77      102 
     139        1       76       78      103 
     140        1       76       78      104 
     141        1       77       76      100 
     142        1       77       81      109 
     143        1       77       81      110 
     144        1       78       76       77 
     145        1       78       76      100 
     146        1       78       82      111 
     147        1       78       82      112 
     148        1       79       74       72 
     149        3       79       83      113 
     150        1       80       75       73 
     151        1       80       86      117 
     152        1       80       86      118 
     153        1       81       77       76 
     154        1       81       77      101 
     155        1       81       77      102 
     156        1       81       84      114 
     157        1       81       84      115 
     158        1       82       78       76 
     159        1       82       78      103 
     160        1       82       78      104 
     161        3       82       85      116 
     162        1       83       79       74 
     163        1       83       79      105 
     164        1       83       79      106 
     165        3       83       85       82 
     166        3       83       85      116 
     167        1       84       81       77 
     168        1       84       81      109 
     169        1       84       81      110 
     170        1       84       87      119 
     171        1       84       87      120 
     172        1       84       87      121 
     173        1       85       82       78 
     174        1       85       82      111 
     175        1       85       82      112 
     176        3       85       83       79 
     177        3       85       83      113 
     178        1       86       80       75 
     179        1       86       80      107 
     180        1       86       80      108 
     181        3       86       88       69 
     182        3       86       88       70 
     183        1       87       84       81 
     184        1       87       84      114 
     185        1       87       84      115 
     186        5       88       69      122 
     187        1       88       86       80 
     188        1       88       86      117 
     189        1       88       86      118 
     190        1       89       71       72 
     191        1       89       71       73 
     192        1       90       71       72 
     193        1       90       71       73 
     194        1       90       71       89 
     195        1       91       72       71 
     196        1       91       72       74 
     197        1       92       72       71 
     198        1       92       72       74 
     199        1       92       72       91 
     200        1       93       73       71 
     201        1       93       73       75 
     202        1       94       73       71 
     203        1       94       73       75 
     204        1       94       73       93 
     205        1       95       74       72 
     206        1       95       74       79 
     207        1       96       74       72 
     208        1       96       74       79 
     209        1       96       74       95 
     210        1       97       75       73 
     211        1       97       75       80 
     212        1       98       75       73 
     213        1       98       75       80 
     214        1       98       75       97 
     215        1       99       76       77 
     216        1       99       76       78 
     217        1       99       76      100 
     218        1      102       77      101 
     219        1      104       78      103 
     220        1      106       79      105 
     221        1      108       80      107 
     222        1      110       81      109 
     223        1      112       82      111 
     224        1      115       84      114 
     225        1      118       86      117 
     226        1      120       87      119 
     227        1      121       87      119 
     228        1      121       87      120 

Dihedrals

       1        4        3        2        1       31 
       2        4        3        2        1       32 
       3        8        3        4        5       30 
       4        7        3        4       31        1 
       5        4        4        3        2        1 
       6        4        4        3        2       34 
       7        4        4        3        2       35 
       8        6        4        5        6       38 
       9        6        4        5       30       29 
      10        4        4       31        1        2 
      11        4        4       31        1       32 
      12        4        4       31        1       33 
      13        7        5        4        3        2 
      14        7        5        4        3       36 
      15        7        5        4        3       37 
      16        7        5        4       31        1 
      17        6        5        6        7       39 
      18        8        6        5        4        3 
      19        8        6        5        4       31 
      20        6        6        5       30       29 
      21        6        6        7        8       29 
      22        6        7        6        5        4 
      23        6        7        6        5       30 
      24        6        7        8        9       10 
      25        6        7        8        9       11 
      26        6        7        8       29       30 
      27        6        7        8       29       65 
      28        6        8        7        6        5 
      29        6        8        7        6       38 
      30        6        8        9       11       12 
      31        6        8        9       11       28 
      32        6        8       29       30        5 
      33        6        8       29       30       66 
      34        6        9        8        7        6 
      35        6        9        8        7       39 
      36        6        9        8       29       30 
      37        6        9        8       29       65 
      38        6        9       11       12       13 
      39        6        9       11       12       40 
      40        6        9       11       28       27 
      41        6        9       11       28       64 
      42        6       12       11        9       10 
      43        6       14       13       12       11 
      44        6       14       27       28       11 
      45        6       15       14       13       12 
      46       11       16       15       14       13 
      47       10       17       16       15       14 
      48        4       18       17       16       15 
      49        4       19       18       17       16 
      50        4       20       19       18       17 
      51        4       21       20       19       18 
      52        4       22       21       20       19 
      53        4       23       22       21       20 
      54        4       24       23       22       21 
      55        4       25       24       23       22 
      56        4       26       25       24       23 
      57        6       27       14       13       12 
      58       11       27       14       15       16 
      59        6       27       28       11       12 
      60        6       28       11        9       10 
      61        6       28       11       12       13 
      62        6       28       27       14       13 
      63        6       28       27       14       15 
      64        6       29        8        9       10 
      65        6       29        8        9       11 
      66        7       31        4        3        2 