ITEM: TIMESTEP
0
ITEM: NUMBER OF ATOMS
122
ITEM: BOX BOUNDS pp pp pp
0.0000000000000000e+00 6.0000000000000000e+01
0.0000000000000000e+00 6.0000000000000000e+01
0.0000000000000000e+00 6.0000000000000000e+01
ITEM: ATOMS id type xu yu zu vx vy vz
35 6 22.4245 32.5442 52.4776 0 0 0
7 3 28.8417 33.597 52.3638 0 0 0
8 3 29.1647 32.5926 51.4452 0 0 0
12 3 29.4719 31.6235 48.6711 0 0 0
13 3 29.6142 30.9649 47.4831 0 0 0
29 3 28.2658 31.5465 51.2126 0 0 0
30 3 27.0742 31.5055 51.8894 0 0 0
37 6 24.569 32.1876 51.6085 0 0 0
40 6 28.4894 31.9107 49.0156 0 0 0
41 6 28.7437 30.7314 46.8881 0 0 0
65 6 28.5119 30.7697 50.5038 0 0 0
66 6 26.3796 30.698 51.7104 0 0 0
1 1 23.5234 33.6561 53.9915 0 0 0
2 1 23.1577 32.3482 53.26 0 0 0
3 1 24.4817 31.8506 52.6414 0 0 0
4 2 25.5417 32.4685 53.4792 0 0 0
5 3 26.7533 32.51 52.799 0 0 0
6 3 27.6459 33.5529 53.0329 0 0 0
31 1 25.0378 33.8389 53.7533 0 0 0
32 6 22.9698 34.4942 53.5682 0 0 0
33 6 23.3163 33.5643 55.0577 0 0 0
34 6 22.7709 31.6144 53.9672 0 0 0
36 6 24.5411 30.7635 52.694 0 0 0
38 6 27.3957 34.3282 53.742 0 0 0
39 6 29.5334 34.4062 52.5453 0 0 0
67 6 25.2121 34.4869 52.8944 0 0 0
68 6 25.5158 34.2488 54.643 0 0 0
62 7 42.4592 24.0606 37.1867 0 0 0
17 1 33.1791 28.7554 44.0845 0 0 0
18 1 34.6911 28.5447 43.9828 0 0 0
19 1 35.0167 27.8063 42.6828 0 0 0
20 1 36.5288 27.5955 42.581 0 0 0
21 1 36.8544 26.8573 41.2811 0 0 0
44 6 32.6764 27.7883 44.0802 0 0 0
45 6 32.8367 29.3468 43.2353 0 0 0
46 6 35.194 29.5117 43.9871 0 0 0
47 6 35.0335 27.9533 44.832 0 0 0
48 6 34.5139 26.8392 42.6785 0 0 0
49 6 34.6744 28.3977 41.8335 0 0 0
50 6 37.0316 28.5627 42.5854 0 0 0
51 6 36.8712 27.0042 43.4302 0 0 0
52 6 36.3516 25.8901 41.2767 0 0 0
53 6 36.512 27.4486 40.4319 0 0 0
22 1 38.3664 26.6465 41.1793 0 0 0
23 1 38.692 25.9082 39.8793 0 0 0
24 1 40.204 25.6975 39.7776 0 0 0
25 1 40.5296 24.9591 38.4776 0 0 0
26 5 42.3223 24.7092 38.3569 0 0 0
54 6 38.8691 27.6135 41.1836 0 0 0
55 6 38.7088 26.0552 42.0285 0 0 0
56 6 38.1892 24.9411 39.875 0 0 0
57 6 38.3496 26.4995 39.0301 0 0 0
58 6 40.7067 26.6645 39.7819 0 0 0
59 6 40.5464 25.1061 40.6268 0 0 0
60 6 40.0268 23.992 38.4733 0 0 0
61 6 40.1872 25.5505 37.6284 0 0 0
15 5 31.0609 29.7436 45.5052 0 0 0
16 1 32.8535 29.4937 45.3845 0 0 0
43 6 33.1959 28.9024 46.2336 0 0 0
9 3 30.4501 32.6365 50.724 0 0 0
10 4 31.3868 33.2592 51.1876 0 0 0
11 3 30.6003 31.9257 49.4414 0 0 0
14 3 30.8814 30.5933 47.0383 0 0 0
27 3 32.0072 30.8927 47.8032 0 0 0
28 3 31.872 31.5567 48.9889 0 0 0
42 6 33.3563 30.4608 45.3888 0 0 0
63 6 32.9879 30.6034 47.4557 0 0 0
64 6 32.7448 31.7883 49.5813 0 0 0
76 1 52.3007 29.0327 3.40902 0 0 0
77 1 51.0874 29.8373 2.93614 0 0 0
99 6 51.9698 28.0835 3.84665 0 0 0
101 6 50.5952 29.3 2.11608 0 0 0
109 6 49.6932 29.1188 4.41708 0 0 0
74 1 57.8327 29.4873 3.14253 0 0 0
78 1 53.2664 28.7555 2.25115 0 0 0
79 1 56.8282 29.7827 2.02608 0 0 0
82 1 54.5134 27.9771 2.68388 0 0 0
83 3 56.4991 28.5355 1.25751 0 0 0
85 3 55.467 27.7308 1.551 0 0 0
94 6 55.8971 29.6926 5.22244 0 0 0
95 6 57.446 28.7056 3.80699 0 0 0
96 6 58.7534 29.0815 2.70292 0 0 0
100 6 52.8416 29.5815 4.18751 0 0 0
103 6 52.7409 28.1924 1.46897 0 0 0
104 6 53.5674 29.7102 1.80157 0 0 0
107 6 54.1202 29.5674 7.07239 0 0 0
111 6 55.0019 28.4884 3.51746 0 0 0
112 6 54.2089 27.0019 3.08483 0 0 0
113 6 57.1463 28.2762 0.42395 0 0 0
116 6 55.295 26.8523 0.935 0 0 0
70 4 53.0083 29.3098 9.62937 0 0 0
81 1 50.0538 30.0835 4.03921 0 0 0
84 1 50.5909 30.9218 5.20015 0 0 0
87 1 49.5317 31.1267 6.27253 0 0 0
102 6 51.4198 30.8 2.52901 0 0 0
110 6 49.1882 30.5926 3.59766 0 0 0
114 6 51.4496 30.426 5.66263 0 0 0
115 6 50.9324 31.8958 4.83204 0 0 0
119 6 49.2022 30.1684 6.68687 0 0 0
120 6 48.6574 31.6452 5.8662 0 0 0
121 6 49.9336 31.7303 7.09232 0 0 0
71 1 57.0337 31.445 4.64838 0 0 0
72 1 58.2032 30.721 3.97199 0 0 0
73 1 56.3137 30.5881 5.69257 0 0 0
75 1 55.1816 31.33 6.41108 0 0 0
89 6 56.3192 31.81 3.90301 0 0 0
90 6 57.433 32.3382 5.14565 0 0 0
91 6 58.7172 31.438 3.31928 0 0 0
92 6 58.9323 30.4238 4.73587 0 0 0
93 6 57.0433 30.244 6.43626 0 0 0
97 6 55.5791 32.251 6.85487 0 0 0
98 6 54.4271 31.6317 5.6739 0 0 0
105 6 57.2546 30.5152 1.32965 0 0 0
106 6 55.9187 30.2445 2.41984 0 0 0
117 6 52.6144 31.5259 7.4676 0 0 0
69 8 51.6913 31.1431 9.8705 0 0 0
122 7 51.2456 30.6247 10.574 0 0 0
80 1 54.5123 30.4949 7.50829 0 0 0
86 1 53.3769 31.2496 8.20222 0 0 0
88 3 52.7078 30.4476 9.2963 0 0 0
108 6 55.2629 30.1978 8.2512 0 0 0
118 6 53.7732 32.1653 8.65577 0 0 0
ITEM: TIMESTEP
25
ITEM: NUMBER OF ATOMS
122
ITEM: BOX BOUNDS pp pp pp
0.0000000000000000e+00 6.0000000000000000e+01
0.0000000000000000e+00 6.0000000000000000e+01
0.0000000000000000e+00 6.0000000000000000e+01
ITEM: ATOMS id type xu yu zu vx vy vz
35 6 22.3559 32.5321 52.4884 0 0 0
7 3 28.9204 33.5849 52.3686 0 0 0
8 3 29.2447 32.5737 51.4394 0 0 0
12 3 29.4914 31.6957 48.5853 0 0 0
13 3 29.6515 30.9625 47.4105 0 0 0
29 3 28.3399 31.4851 51.2993 0 0 0
30 3 27.1241 31.4696 51.9532 0 0 0
37 6 24.4612 32.1818 51.6155 0 0 0
40 6 28.5484 32.0201 48.8037 0 0 0
41 6 28.8198 30.7281 46.8563 0 0 0
65 6 28.5467 30.678 50.7108 0 0 0
66 6 26.4998 30.6857 51.7509 0 0 0
1 1 23.457 33.6657 54.005 0 0 0
2 1 23.0918 32.3633 53.2769 0 0 0
3 1 24.4012 31.8728 52.668 0 0 0
4 2 25.485 32.5019 53.4676 0 0 0
5 3 26.7648 32.5088 52.8386 0 0 0
6 3 27.7136 33.5419 53.0658 0 0 0
31 1 24.954 33.8503 53.772 0 0 0
32 6 22.9115 34.52 53.6004 0 0 0
33 6 23.2638 33.5733 55.076 0 0 0
34 6 22.7166 31.6189 53.9829 0 0 0
36 6 24.4556 30.7808 52.724 0 0 0
38 6 27.5251 34.2963 53.7253 0 0 0
39 6 29.55 34.3783 52.5282 0 0 0
67 6 25.1181 34.534 52.9281 0 0 0
68 6 25.4315 34.2597 54.6671 0 0 0
62 7 42.3569 24.0668 37.1787 0 0 0
17 1 33.1568 28.7474 44.0663 0 0 0
18 1 34.6795 28.5446 43.9804 0 0 0
19 1 35.0146 27.8053 42.6804 0 0 0
20 1 36.5309 27.5954 42.5812 0 0 0
21 1 36.8583 26.8549 41.2775 0 0 0
44 6 32.651 27.778 44.0614 0 0 0
45 6 32.8114 29.3409 43.2152 0 0 0
46 6 35.1892 29.5143 43.9927 0 0 0
47 6 35.0292 27.9574 44.8367 0 0 0
48 6 34.5072 26.8352 42.67 0 0 0
49 6 34.6676 28.3938 41.8249 0 0 0
50 6 37.0385 28.5655 42.592 0 0 0
51 6 36.8781 27.0072 43.4369 0 0 0
52 6 36.348 25.8863 41.2682 0 0 0
53 6 36.5083 27.4441 40.4236 0 0 0
22 1 38.3754 26.6418 41.1723 0 0 0
23 1 38.7087 25.8998 39.867 0 0 0
24 1 40.229 25.6813 39.7526 0 0 0
25 1 40.5848 24.9392 38.4512 0 0 0
26 5 42.3756 24.7131 38.3741 0 0 0
54 6 38.8813 27.6126 41.1856 0 0 0
55 6 38.7211 26.0554 42.0299 0 0 0
56 6 38.1946 24.9335 39.8598 0 0 0
57 6 38.3548 26.4901 39.0159 0 0 0
58 6 40.7319 26.6533 39.7696 0 0 0
59 6 40.5719 25.0979 40.6129 0 0 0
60 6 40.087 23.9663 38.4352 0 0 0
61 6 40.2472 25.523 37.5912 0 0 0
15 5 31.0401 29.7208 45.4869 0 0 0
16 1 32.8212 29.4804 45.3572 0 0 0
43 6 33.1683 28.8792 46.2031 0 0 0
9 3 30.427 32.6228 50.6913 0 0 0
10 4 31.4041 33.2683 51.1774 0 0 0
11 3 30.5917 31.9834 49.4501 0 0 0
14 3 30.9375 30.5724 47.0014 0 0 0
27 3 32.0428 30.9106 47.8219 0 0 0
28 3 31.875 31.5999 49.0198 0 0 0
42 6 33.3254 30.4521 45.3501 0 0 0
63 6 32.9959 30.6676 47.5819 0 0 0
64 6 32.7062 31.7998 49.5867 0 0 0
76 1 52.3096 29.0204 3.39328 0 0 0
77 1 51.0815 29.8415 2.92377 0 0 0
99 6 51.9721 28.0765 3.83154 0 0 0
101 6 50.5871 29.3018 2.11091 0 0 0
109 6 49.6906 29.1133 4.41476 0 0 0
74 1 57.8541 29.484 3.12805 0 0 0
78 1 53.2713 28.7336 2.21984 0 0 0
79 1 56.8545 29.7822 1.98023 0 0 0
82 1 54.5054 27.9214 2.67738 0 0 0
83 3 56.5192 28.5504 1.23707 0 0 0
85 3 55.4459 27.7022 1.55619 0 0 0
94 6 55.8973 29.7054 5.23149 0 0 0
95 6 57.4525 28.7115 3.78951 0 0 0
96 6 58.7723 29.0801 2.69354 0 0 0
100 6 52.8603 29.5759 4.1563 0 0 0
103 6 52.7393 28.1738 1.44689 0 0 0
104 6 53.5918 29.6894 1.79283 0 0 0
107 6 54.1156 29.5659 7.0619 0 0 0
111 6 54.9968 28.4407 3.49807 0 0 0
112 6 54.1881 26.954 3.07026 0 0 0
113 6 57.1229 28.2883 0.453381 0 0 0
116 6 55.2907 26.8851 0.960262 0 0 0
70 4 52.9885 29.3426 9.62718 0 0 0
81 1 50.0377 30.0803 4.03959 0 0 0
84 1 50.578 30.932 5.21626 0 0 0
87 1 49.5089 31.1443 6.30252 0 0 0
102 6 51.4143 30.8063 2.53001 0 0 0
110 6 49.18 30.5941 3.59622 0 0 0
114 6 51.424 30.4274 5.6839 0 0 0
115 6 50.9187 31.9023 4.84309 0 0 0
119 6 49.192 30.1801 6.7058 0 0 0
120 6 48.6439 31.6602 5.88298 0 0 0
121 6 49.9227 31.7452 7.11337 0 0 0
71 1 57.0487 31.466 4.66278 0 0 0
72 1 58.2284 30.7367 3.96441 0 0 0
73 1 56.3239 30.5858 5.71085 0 0 0
75 1 55.1793 31.3466 6.41373 0 0 0
89 6 56.3319 31.8262 3.92166 0 0 0
90 6 57.4502 32.3491 5.16561 0 0 0
91 6 58.7329 31.4503 3.30882 0 0 0
92 6 58.9479 30.4336 4.73036 0 0 0
93 6 57.0505 30.2485 6.4545 0 0 0
97 6 55.5798 32.2583 6.86555 0 0 0
98 6 54.4272 31.6306 5.67062 0 0 0
105 6 57.2886 30.512 1.29425 0 0 0
106 6 55.9417 30.2294 2.37159 0 0 0
117 6 52.6263 31.5353 7.47582 0 0 0
69 8 51.6641 31.1014 9.91836 0 0 0
122 7 51.2091 30.6034 10.6237 0 0 0
80 1 54.5166 30.4801 7.51125 0 0 0
86 1 53.3745 31.2501 8.21536 0 0 0
88 3 52.6849 30.5043 9.27711 0 0 0
108 6 55.2705 30.1986 8.25292 0 0 0
118 6 53.776 32.1629 8.65976 0 0 0
ITEM: TIMESTEP
50
ITEM: NUMBER OF ATOMS
122
ITEM: BOX BOUNDS pp pp pp
0.0000000000000000e+00 6.0000000000000000e+01
0.0000000000000000e+00 6.0000000000000000e+01
0.0000000000000000e+00 6.0000000000000000e+01
ITEM: ATOMS id type xu yu zu vx vy vz
35 6 22.2646 32.5477 52.5339 0 0 0
7 3 28.9303 33.5696 52.4123 0 0 0
8 3 29.2578 32.5633 51.4781 0 0 0
12 3 29.515 31.7488 48.5784 0 0 0
13 3 29.6876 31.0269 47.3899 0 0 0
29 3 28.3787 31.4597 51.3705 0 0 0
30 3 27.1483 31.4434 52.0386 0 0 0
37 6 24.3774 32.1896 51.6299 0 0 0
40 6 28.5726 32.0816 48.7936 0 0 0
41 6 28.8691 30.8156 46.8111 0 0 0
65 6 28.6204 30.6422 50.8048 0 0 0
66 6 26.5463 30.6321 51.898 0 0 0
1 1 23.3774 33.6828 54.0386 0 0 0
2 1 23.0187 32.38 53.3075 0 0 0
3 1 24.3373 31.8968 52.6861 0 0 0
4 2 25.4333 32.5415 53.4609 0 0 0
5 3 26.7462 32.5182 52.8652 0 0 0
6 3 27.7034 33.5392 53.0972 0 0 0
31 1 24.8807 33.8804 53.7933 0 0 0
32 6 22.8074 34.5301 53.6485 0 0 0
33 6 23.1805 33.583 55.1094 0 0 0
34 6 22.6413 31.6382 54.0171 0 0 0
36 6 24.3974 30.8074 52.7555 0 0 0
38 6 27.5154 34.2915 53.7587 0 0 0
39 6 29.5669 34.3534 52.581 0 0 0
67 6 25.0287 34.5822 52.9634 0 0 0
68 6 25.3556 34.2835 54.6916 0 0 0
62 7 42.3305 24.0406 37.1253 0 0 0
17 1 33.1267 28.7295 44.0349 0 0 0
18 1 34.653 28.5308 43.9504 0 0 0
19 1 35.0172 27.792 42.6554 0 0 0
20 1 36.5394 27.5845 42.562 0 0 0
21 1 36.8871 26.8418 41.2585 0 0 0
44 6 32.6209 27.7596 44.0257 0 0 0
45 6 32.7774 29.3219 43.184 0 0 0
46 6 35.1549 29.5042 43.9685 0 0 0
47 6 34.9985 27.9482 44.8112 0 0 0
48 6 34.5135 26.8206 42.6413 0 0 0
49 6 34.6734 28.378 41.7976 0 0 0
50 6 37.0432 28.5562 42.5784 0 0 0
51 6 36.8829 27.0005 43.4218 0 0 0
52 6 36.3765 25.8738 41.2474 0 0 0
53 6 36.5366 27.4291 40.404 0 0 0
22 1 38.4074 26.6225 41.1428 0 0 0
23 1 38.7586 25.8783 39.8369 0 0 0
24 1 40.2833 25.6579 39.7197 0 0 0
25 1 40.6542 24.9152 38.4202 0 0 0
26 5 42.4381 24.6777 38.3208 0 0 0
54 6 38.9128 27.593 41.1582 0 0 0
55 6 38.7528 26.0382 42.0011 0 0 0
56 6 38.2469 24.9111 39.8253 0 0 0
57 6 38.4068 26.4651 38.9827 0 0 0
58 6 40.7871 26.6289 39.7368 0 0 0
59 6 40.6272 25.075 40.5793 0 0 0
60 6 40.1686 23.9373 38.3963 0 0 0
61 6 40.3288 25.4933 37.5527 0 0 0
15 5 31.0279 29.7044 45.5064 0 0 0
16 1 32.8004 29.4633 45.334 0 0 0
43 6 33.1577 28.8674 46.1783 0 0 0
9 3 30.4389 32.6492 50.7024 0 0 0
10 4 31.3977 33.3186 51.1594 0 0 0
11 3 30.6051 32.0178 49.4474 0 0 0
14 3 30.9684 30.6023 47.0014 0 0 0
27 3 32.073 30.9306 47.8257 0 0 0
28 3 31.8953 31.6358 49.0211 0 0 0
42 6 33.2933 30.4395 45.3207 0 0 0
63 6 33.027 30.665 47.5962 0 0 0
64 6 32.7198 31.8379 49.5936 0 0 0
76 1 52.3078 29.0117 3.36972 0 0 0
77 1 51.0755 29.8457 2.92599 0 0 0
99 6 51.9665 28.0708 3.81037 0 0 0
101 6 50.5747 29.3189 2.10838 0 0 0
109 6 49.6854 29.1109 4.42177 0 0 0
74 1 57.8755 29.4976 3.10993 0 0 0
78 1 53.2693 28.7053 2.19436 0 0 0
79 1 56.8794 29.7732 1.95196 0 0 0
82 1 54.5004 27.8803 2.6479 0 0 0
83 3 56.5314 28.5322 1.2231 0 0 0
85 3 55.4575 27.6799 1.5365 0 0 0
94 6 55.9222 29.7171 5.24293 0 0 0
95 6 57.4733 28.727 3.7711 0 0 0
96 6 58.7985 29.0961 2.68137 0 0 0
100 6 52.8651 29.5645 4.12943 0 0 0
103 6 52.7316 28.1486 1.42174 0 0 0
104 6 53.6039 29.6521 1.76085 0 0 0
107 6 54.0938 29.5907 7.06743 0 0 0
111 6 54.9902 28.3744 3.48646 0 0 0
112 6 54.17 26.9024 3.00775 0 0 0
113 6 57.1299 28.2652 0.436718 0 0 0
116 6 55.312 26.8648 0.934676 0 0 0
70 4 52.9583 29.3503 9.62934 0 0 0
81 1 50.0299 30.0797 4.04964 0 0 0
84 1 50.5525 30.9323 5.23633 0 0 0
87 1 49.4811 31.1616 6.32338 0 0 0
102 6 51.4102 30.8126 2.53975 0 0 0
110 6 49.1687 30.5893 3.60765 0 0 0
114 6 51.3964 30.4255 5.70576 0 0 0
115 6 50.8964 31.902 4.86568 0 0 0
119 6 49.1541 30.2062 6.73878 0 0 0
120 6 48.6184 31.6833 5.90536 0 0 0
121 6 49.8979 31.7667 7.13079 0 0 0
71 1 57.0769 31.4743 4.678 0 0 0
72 1 58.2469 30.7514 3.95147 0 0 0
73 1 56.3422 30.5984 5.72759 0 0 0
75 1 55.1868 31.356 6.42854 0 0 0
89 6 56.3604 31.848 3.94378 0 0 0
90 6 57.4916 32.3478 5.18886 0 0 0
91 6 58.7395 31.4732 3.29439 0 0 0
92 6 58.9816 30.4498 4.70359 0 0 0
93 6 57.0649 30.263 6.47639 0 0 0
97 6 55.5817 32.2687 6.88319 0 0 0
98 6 54.4421 31.6408 5.67893 0 0 0
105 6 57.3303 30.4791 1.2498 0 0 0
106 6 55.9709 30.2398 2.33087 0 0 0
117 6 52.6188 31.5737 7.50045 0 0 0
69 8 51.6358 31.0912 9.95643 0 0 0
122 7 51.1904 30.5692 10.6541 0 0 0
80 1 54.502 30.4977 7.52403 0 0 0
86 1 53.3609 31.2697 8.23903 0 0 0
88 3 52.6585 30.5169 9.29454 0 0 0
108 6 55.2501 30.2008 8.26519 0 0 0
118 6 53.7709 32.1727 8.69524 0 0 0
ITEM: TIMESTEP
75
ITEM: NUMBER OF ATOMS
122
ITEM: BOX BOUNDS pp pp pp
0.0000000000000000e+00 6.0000000000000000e+01
0.0000000000000000e+00 6.0000000000000000e+01
0.0000000000000000e+00 6.0000000000000000e+01
ITEM: ATOMS id type xu yu zu vx vy vz
35 6 22.2569 32.5491 52.539 0 0 0
7 3 28.9255 33.5714 52.4201 0 0 0
8 3 29.2569 32.565 51.4854 0 0 0
12 3 29.5152 31.754 48.5841 0 0 0
13 3 29.6883 31.037 47.3925 0 0 0
29 3 28.3762 31.4599 51.3806 0 0 0
30 3 27.1471 31.4432 52.0491 0 0 0
37 6 24.3705 32.1936 51.6336 0 0 0
40 6 28.5734 32.0864 48.8009 0 0 0
41 6 28.8701 30.8313 46.8114 0 0 0
65 6 28.6202 30.6426 50.8154 0 0 0
66 6 26.5465 30.6295 51.9134 0 0 0
1 1 23.3693 33.6841 54.0439 0 0 0
2 1 23.0118 32.3814 53.3119 0 0 0
3 1 24.3308 31.8998 52.6895 0 0 0
4 2 25.4267 32.5447 53.4648 0 0 0
5 3 26.7405 32.5205 52.8715 0 0 0
6 3 27.6977 33.5428 53.1013 0 0 0
31 1 24.8725 33.8831 53.7976 0 0 0
32 6 22.7979 34.5311 53.6551 0 0 0
33 6 23.173 33.5832 55.1148 0 0 0
34 6 22.6351 31.6391 54.0213 0 0 0
36 6 24.3915 30.8104 52.7579 0 0 0
38 6 27.5069 34.2972 53.7601 0 0 0
39 6 29.5629 34.3547 52.5899 0 0 0
67 6 25.0189 34.5849 52.9675 0 0 0
68 6 25.3472 34.2872 54.6955 0 0 0
62 7 42.338 24.0343 37.1151 0 0 0
17 1 33.1236 28.7271 44.0312 0 0 0
18 1 34.6502 28.527 43.943 0 0 0
19 1 35.0177 27.788 42.6481 0 0 0
20 1 36.541 27.5809 42.5554 0 0 0
21 1 36.8937 26.838 41.2526 0 0 0
44 6 32.6173 27.7574 44.0228 0 0 0
45 6 32.7731 29.3186 43.1803 0 0 0
46 6 35.1519 29.5004 43.9612 0 0 0
47 6 34.9961 27.9447 44.8038 0 0 0
48 6 34.5146 26.8164 42.6332 0 0 0
49 6 34.6745 28.3736 41.7898 0 0 0
50 6 37.0441 28.5529 42.5726 0 0 0
51 6 36.884 26.9975 43.4158 0 0 0
52 6 36.3839 25.8697 41.2408 0 0 0
53 6 36.544 27.4246 40.3975 0 0 0
22 1 38.4149 26.619 41.1377 0 0 0
23 1 38.7689 25.8746 39.832 0 0 0
24 1 40.2938 25.6536 39.7137 0 0 0
25 1 40.6637 24.9106 38.4136 0 0 0
26 5 42.4473 24.6713 38.3107 0 0 0
54 6 38.92 27.5895 41.1535 0 0 0
55 6 38.7599 26.035 41.9963 0 0 0
56 6 38.2575 24.9072 39.8199 0 0 0
57 6 38.4174 26.461 38.9775 0 0 0
58 6 40.7982 26.6242 39.7305 0 0 0
59 6 40.6383 25.0705 40.5729 0 0 0
60 6 40.1776 23.933 38.3899 0 0 0
61 6 40.3377 25.4889 37.5464 0 0 0
15 5 31.0269 29.7082 45.5095 0 0 0
16 1 32.7988 29.4625 45.3314 0 0 0
43 6 33.1572 28.867 46.1755 0 0 0
9 3 30.4354 32.6511 50.7096 0 0 0
10 4 31.3949 33.3247 51.1649 0 0 0
11 3 30.6059 32.0211 49.4539 0 0 0
14 3 30.968 30.6089 47.0038 0 0 0
27 3 32.073 30.9353 47.8285 0 0 0
28 3 31.8952 31.6403 49.025 0 0 0
42 6 33.2928 30.4379 45.3172 0 0 0
63 6 33.0262 30.668 47.5974 0 0 0
64 6 32.7206 31.8433 49.5966 0 0 0
76 1 52.3076 29.0101 3.36793 0 0 0
77 1 51.0753 29.8462 2.92734 0 0 0
99 6 51.9657 28.0692 3.80795 0 0 0
101 6 50.5738 29.3218 2.10864 0 0 0
109 6 49.6859 29.1096 4.4235 0 0 0
74 1 57.8772 29.4981 3.10865 0 0 0
78 1 53.268 28.703 2.19113 0 0 0
79 1 56.8813 29.7714 1.94991 0 0 0
82 1 54.4997 27.877 2.6424 0 0 0
83 3 56.5341 28.5297 1.22154 0 0 0
85 3 55.4588 27.678 1.53219 0 0 0
94 6 55.9244 29.7179 5.24584 0 0 0
95 6 57.4755 28.7275 3.77018 0 0 0
96 6 58.8008 29.0972 2.68042 0 0 0
100 6 52.8659 29.5615 4.12796 0 0 0
103 6 52.7289 28.1466 1.41921 0 0 0
104 6 53.6027 29.6494 1.7569 0 0 0
107 6 54.0906 29.5953 7.06752 0 0 0
111 6 54.9894 28.3687 3.48262 0 0 0
112 6 54.1687 26.8982 2.99929 0 0 0
113 6 57.1345 28.2616 0.436854 0 0 0
116 6 55.3148 26.8629 0.929728 0 0 0
70 4 52.9546 29.3497 9.62704 0 0 0
81 1 50.0295 30.0788 4.05157 0 0 0
84 1 50.5506 30.9317 5.23873 0 0 0
87 1 49.4777 31.1632 6.32418 0 0 0
102 6 51.4105 30.8137 2.54316 0 0 0
110 6 49.1678 30.5875 3.60979 0 0 0
114 6 51.3938 30.4247 5.70933 0 0 0
115 6 50.8954 31.901 4.86798 0 0 0
119 6 49.1489 30.2088 6.74031 0 0 0
120 6 48.6161 31.6855 5.90459 0 0 0
121 6 49.8938 31.7689 7.13157 0 0 0
71 1 57.0791 31.4746 4.67939 0 0 0
72 1 58.2479 30.7526 3.94973 0 0 0
73 1 56.344 30.5998 5.73004 0 0 0
75 1 55.1884 31.3581 6.43094 0 0 0
89 6 56.3621 31.8493 3.94619 0 0 0
90 6 57.4954 32.3473 5.1904 0 0 0
91 6 58.7379 31.4751 3.2914 0 0 0
92 6 58.9852 30.4522 4.69988 0 0 0
93 6 57.0667 30.2652 6.47919 0 0 0
97 6 55.5837 32.2702 6.88646 0 0 0
98 6 54.4448 31.6444 5.68088 0 0 0
105 6 57.3325 30.4763 1.24689 0 0 0
106 6 55.9728 30.2384 2.32811 0 0 0
117 6 52.6187 31.5801 7.50471 0 0 0
69 8 51.6342 31.0907 9.95972 0 0 0
122 7 51.1883 30.5666 10.6556 0 0 0
80 1 54.5006 30.5007 7.52554 0 0 0
86 1 53.3603 31.2728 8.24247 0 0 0
88 3 52.6565 30.5177 9.2958 0 0 0
108 6 55.2478 30.201 8.2665 0 0 0
118 6 53.7715 32.1739 8.70154 0 0 0
ITEM: TIMESTEP
100
ITEM: NUMBER OF ATOMS
122
ITEM: BOX BOUNDS pp pp pp
0.0000000000000000e+00 6.0000000000000000e+01
0.0000000000000000e+00 6.0000000000000000e+01
0.0000000000000000e+00 6.0000000000000000e+01
ITEM: ATOMS id type xu yu zu vx vy vz
35 6 22.2493 32.5504 52.5442 0 0 0
7 3 28.9216 33.5738 52.4265 0 0 0
8 3 29.2527 32.5665 51.4939 0 0 0
12 3 29.5155 31.7591 48.5902 0 0 0
13 3 29.6886 31.0464 47.3954 0 0 0
29 3 28.3752 31.4614 51.3899 0 0 0
30 3 27.1442 31.4437 52.06 0 0 0
37 6 24.3639 32.198 51.6377 0 0 0
40 6 28.5733 32.0908 48.8081 0 0 0
41 6 28.8708 30.8454 46.8124 0 0 0
65 6 28.6192 30.6433 50.8261 0 0 0
66 6 26.5462 30.628 51.9279 0 0 0
1 1 23.3613 33.6853 54.0495 0 0 0
2 1 23.0049 32.3828 53.3165 0 0 0
3 1 24.3245 31.903 52.6932 0 0 0
4 2 25.4198 32.5478 53.4692 0 0 0
5 3 26.7355 32.5233 52.8774 0 0 0
6 3 27.6907 33.5467 53.1059 0 0 0
31 1 24.8643 33.8858 53.8024 0 0 0
32 6 22.7884 34.5319 53.6619 0 0 0
33 6 23.1655 33.5832 55.1204 0 0 0
34 6 22.629 31.6397 54.0255 0 0 0
36 6 24.3857 30.8135 52.7602 0 0 0
38 6 27.4985 34.3031 53.7616 0 0 0
39 6 29.5581 34.3569 52.5979 0 0 0
67 6 25.0092 34.5876 52.972 0 0 0
68 6 25.3387 34.2908 54.6999 0 0 0
62 7 42.3456 24.028 37.105 0 0 0
17 1 33.1208 28.7248 44.0279 0 0 0
18 1 34.6477 28.523 43.9355 0 0 0
19 1 35.0181 27.7838 42.6405 0 0 0
20 1 36.5425 27.577 42.5483 0 0 0
21 1 36.9004 26.834 41.2463 0 0 0
44 6 32.614 27.7554 44.0206 0 0 0
45 6 32.769 29.3155 43.1769 0 0 0
46 6 35.1493 29.4964 43.9535 0 0 0
47 6 34.9941 27.9411 44.7962 0 0 0
48 6 34.5156 26.812 42.6247 0 0 0
49 6 34.6754 28.369 41.7818 0 0 0
50 6 37.045 28.5493 42.5662 0 0 0
51 6 36.8849 26.9942 43.4093 0 0 0
52 6 36.3916 25.8652 41.2335 0 0 0
53 6 36.5516 27.4199 40.3904 0 0 0
22 1 38.4225 26.6153 41.1323 0 0 0
23 1 38.7794 25.8708 39.8269 0 0 0
24 1 40.3046 25.649 39.7074 0 0 0
25 1 40.6736 24.9058 38.4067 0 0 0
26 5 42.4569 24.6648 38.3006 0 0 0
54 6 38.9274 27.586 41.1485 0 0 0
55 6 38.7673 26.0317 41.9912 0 0 0
56 6 38.2684 24.9032 39.8143 0 0 0
57 6 38.4283 26.4567 38.972 0 0 0
58 6 40.8096 26.6193 39.7239 0 0 0
59 6 40.6497 25.0657 40.5662 0 0 0
60 6 40.187 23.9284 38.3832 0 0 0
61 6 40.3471 25.4842 37.5397 0 0 0
15 5 31.0264 29.7136 45.5121 0 0 0
16 1 32.7977 29.4623 45.329 0 0 0
43 6 33.1565 28.8672 46.1731 0 0 0
9 3 30.4349 32.654 50.717 0 0 0
10 4 31.3907 33.3283 51.1712 0 0 0
11 3 30.6047 32.0241 49.4604 0 0 0
14 3 30.9678 30.6158 47.0064 0 0 0
27 3 32.0724 30.9405 47.8315 0 0 0
28 3 31.8952 31.6446 49.0295 0 0 0
42 6 33.2933 30.4366 45.3141 0 0 0
63 6 33.0252 30.6719 47.5989 0 0 0
64 6 32.7204 31.848 49.6005 0 0 0
76 1 52.3075 29.0084 3.36623 0 0 0
77 1 51.0753 29.8465 2.92865 0 0 0
99 6 51.965 28.0673 3.80541 0 0 0
101 6 50.5732 29.3246 2.10883 0 0 0
109 6 49.6867 29.108 4.42524 0 0 0
74 1 57.8786 29.4984 3.10772 0 0 0
78 1 53.2667 28.7009 2.18797 0 0 0
79 1 56.8829 29.7697 1.94833 0 0 0
82 1 54.4989 27.874 2.63709 0 0 0
83 3 56.5367 28.5273 1.22026 0 0 0
85 3 55.4597 27.6764 1.5279 0 0 0
94 6 55.9262 29.7188 5.24874 0 0 0
95 6 57.4774 28.728 3.76968 0 0 0
96 6 58.8026 29.098 2.67984 0 0 0
100 6 52.8667 29.5583 4.12668 0 0 0
103 6 52.7264 28.1449 1.41663 0 0 0
104 6 53.6014 29.6471 1.75322 0 0 0
107 6 54.0876 29.5997 7.06738 0 0 0
111 6 54.9884 28.3635 3.47882 0 0 0
112 6 54.1675 26.8943 2.99129 0 0 0
113 6 57.1391 28.2582 0.43742 0 0 0
116 6 55.317 26.8618 0.924503 0 0 0
70 4 52.9508 29.349 9.62429 0 0 0
81 1 50.0295 30.0776 4.05349 0 0 0
84 1 50.5491 30.931 5.24106 0 0 0
87 1 49.4744 31.1647 6.32466 0 0 0
102 6 51.4112 30.8146 2.54662 0 0 0
110 6 49.1671 30.5855 3.61195 0 0 0
114 6 51.3915 30.4237 5.71298 0 0 0
115 6 50.8949 31.8998 4.87019 0 0 0
119 6 49.1438 30.2112 6.7414 0 0 0
120 6 48.614 31.6875 5.90329 0 0 0
121 6 49.8898 31.7708 7.13214 0 0 0
71 1 57.0809 31.4749 4.68053 0 0 0
72 1 58.2487 30.7536 3.94817 0 0 0
73 1 56.3457 30.6012 5.73236 0 0 0
75 1 55.1901 31.3604 6.43339 0 0 0
89 6 56.3633 31.8502 3.94822 0 0 0
90 6 57.4984 32.3471 5.1914 0 0 0
91 6 58.7362 31.4768 3.28857 0 0 0
92 6 58.9882 30.4546 4.69656 0 0 0
93 6 57.0686 30.2672 6.48168 0 0 0
97 6 55.5862 32.2716 6.88993 0 0 0
98 6 54.4475 31.6483 5.68303 0 0 0
105 6 57.3342 30.474 1.24465 0 0 0
106 6 55.9742 30.2368 2.32598 0 0 0
117 6 52.6192 31.5868 7.50876 0 0 0
69 8 51.633 31.0905 9.96268 0 0 0
122 7 51.1864 30.5642 10.6567 0 0 0
80 1 54.4994 30.5035 7.52695 0 0 0
86 1 53.3601 31.2758 8.24575 0 0 0
88 3 52.6546 30.5186 9.29673 0 0 0
108 6 55.2457 30.2009 8.26763 0 0 0
118 6 53.7727 32.1748 8.70777 0 0 0
ITEM: TIMESTEP
124
ITEM: NUMBER OF ATOMS
122
ITEM: BOX BOUNDS pp pp pp
0.0000000000000000e+00 6.0000000000000000e+01
0.0000000000000000e+00 6.0000000000000000e+01
0.0000000000000000e+00 6.0000000000000000e+01
ITEM: ATOMS id type xu yu zu vx vy vz
35 6 22.2428 32.5516 52.5488 0 0 0
7 3 28.9166 33.5765 52.4326 0 0 0
8 3 29.2512 32.5687 51.5002 0 0 0
12 3 29.5147 31.763 48.5953 0 0 0
13 3 29.6887 31.0541 47.3984 0 0 0
29 3 28.372 31.4623 51.3986 0 0 0
30 3 27.1424 31.4446 52.0686 0 0 0
37 6 24.3582 32.2022 51.6415 0 0 0
40 6 28.573 32.0941 48.8145 0 0 0
41 6 28.8711 30.8566 46.8139 0 0 0
65 6 28.6181 30.6442 50.8354 0 0 0
66 6 26.5452 30.6273 51.9401 0 0 0
1 1 23.3542 33.6861 54.0547 0 0 0
2 1 22.9988 32.384 53.3207 0 0 0
3 1 24.319 31.9059 52.6966 0 0 0
4 2 25.414 32.5507 53.4732 0 0 0
5 3 26.7302 32.5259 52.8831 0 0 0
6 3 27.6854 33.5508 53.1094 0 0 0
31 1 24.857 33.8881 53.8069 0 0 0
32 6 22.7801 34.5325 53.6683 0 0 0
33 6 23.1589 33.5829 55.1257 0 0 0
34 6 22.6236 31.6401 54.0292 0 0 0
36 6 24.3807 30.8164 52.7623 0 0 0
38 6 27.4911 34.3087 53.7631 0 0 0
39 6 29.5536 34.3596 52.604 0 0 0
67 6 25.0007 34.59 52.9765 0 0 0
68 6 25.3313 34.2939 54.7042 0 0 0
62 7 42.3526 24.0225 37.0961 0 0 0
17 1 33.1187 28.7231 44.0252 0 0 0
18 1 34.6457 28.5194 43.9288 0 0 0
19 1 35.0184 27.78 42.6336 0 0 0
20 1 36.5437 27.5733 42.5416 0 0 0
21 1 36.9063 26.8302 41.2403 0 0 0
44 6 32.6112 27.7541 44.0193 0 0 0
45 6 32.7656 29.3129 43.1742 0 0 0
46 6 35.1474 29.4927 43.9466 0 0 0
47 6 34.9926 27.9378 44.7893 0 0 0
48 6 34.5163 26.8081 42.6172 0 0 0
49 6 34.676 28.3648 41.7745 0 0 0
50 6 37.0456 28.5459 42.5602 0 0 0
51 6 36.8857 26.9911 43.4031 0 0 0
52 6 36.3983 25.8611 41.2267 0 0 0
53 6 36.5584 27.4155 40.3837 0 0 0
22 1 38.4293 26.612 41.1273 0 0 0
23 1 38.7889 25.8673 39.8221 0 0 0
24 1 40.3142 25.6449 39.7017 0 0 0
25 1 40.6826 24.9015 38.4004 0 0 0
26 5 42.4656 24.6591 38.2918 0 0 0
54 6 38.9339 27.5827 41.1439 0 0 0
55 6 38.7738 26.0287 41.9866 0 0 0
56 6 38.2782 24.8996 39.8092 0 0 0
57 6 38.4381 26.4529 38.9669 0 0 0
58 6 40.8197 26.6149 39.7179 0 0 0
59 6 40.6598 25.0615 40.5601 0 0 0
60 6 40.1956 23.9243 38.377 0 0 0
61 6 40.3558 25.4799 37.5336 0 0 0
15 5 31.0266 29.7196 45.5138 0 0 0
16 1 32.7972 29.4625 45.3271 0 0 0
43 6 33.1559 28.8677 46.1713 0 0 0
9 3 30.431 32.655 50.7237 0 0 0
10 4 31.3885 33.3313 51.1782 0 0 0
11 3 30.6045 32.0267 49.4666 0 0 0
14 3 30.9674 30.6222 47.0086 0 0 0
27 3 32.0721 30.9454 47.8344 0 0 0
28 3 31.8943 31.6482 49.0337 0 0 0
42 6 33.2948 30.4357 45.3116 0 0 0
63 6 33.0243 30.6762 47.6003 0 0 0
64 6 32.7199 31.8517 49.6046 0 0 0
76 1 52.3074 29.0068 3.3648 0 0 0
77 1 51.0755 29.8468 2.92978 0 0 0
99 6 51.9643 28.0655 3.80309 0 0 0
101 6 50.5728 29.327 2.10894 0 0 0
109 6 49.6878 29.1064 4.42677 0 0 0
74 1 57.8796 29.4985 3.1072 0 0 0
78 1 53.2656 28.6992 2.18527 0 0 0
79 1 56.884 29.7682 1.94731 0 0 0
82 1 54.4982 27.8716 2.6326 0 0 0
83 3 56.5388 28.5254 1.21934 0 0 0
85 3 55.4603 27.6753 1.52416 0 0 0
94 6 55.9275 29.7196 5.25123 0 0 0
95 6 57.4786 28.7284 3.76958 0 0 0
96 6 58.8039 29.0984 2.67964 0 0 0
100 6 52.8674 29.5553 4.12572 0 0 0
103 6 52.7243 28.1436 1.41434 0 0 0
104 6 53.6003 29.6453 1.75024 0 0 0
107 6 54.0851 29.6036 7.06707 0 0 0
111 6 54.9875 28.3593 3.47555 0 0 0
112 6 54.1665 26.8912 2.98461 0 0 0
113 6 57.1431 28.2554 0.438173 0 0 0
116 6 55.3183 26.8612 0.919723 0 0 0
70 4 52.9472 29.3484 9.62149 0 0 0
81 1 50.0296 30.0764 4.05515 0 0 0
84 1 50.548 30.9302 5.24303 0 0 0
87 1 49.4718 31.1659 6.32486 0 0 0
102 6 51.4119 30.8154 2.5497 0 0 0
110 6 49.1666 30.5835 3.61386 0 0 0
114 6 51.3896 30.4226 5.71624 0 0 0
115 6 50.8948 31.8986 4.87206 0 0 0
119 6 49.1393 30.2131 6.74202 0 0 0
120 6 48.6125 31.6892 5.90176 0 0 0
121 6 49.8863 31.7724 7.13248 0 0 0
71 1 57.082 31.4751 4.68131 0 0 0
72 1 58.2492 30.7545 3.94696 0 0 0
73 1 56.3471 30.6023 5.73426 0 0 0
75 1 55.1917 31.3624 6.4356 0 0 0
89 6 56.3639 31.8507 3.94969 0 0 0
90 6 57.5005 32.3472 5.19184 0 0 0
91 6 58.7346 31.478 3.28625 0 0 0
92 6 58.9905 30.4566 4.694 0 0 0
93 6 57.0703 30.2689 6.48359 0 0 0
97 6 55.5887 32.2727 6.89316 0 0 0
98 6 54.45 31.652 5.68509 0 0 0
105 6 57.3352 30.4722 1.2432 0 0 0
106 6 55.975 30.2351 2.32459 0 0 0
117 6 52.62 31.5928 7.51216 0 0 0
69 8 51.6322 31.0905 9.96501 0 0 0
122 7 51.1849 30.5625 10.6573 0 0 0
80 1 54.4987 30.5059 7.5281 0 0 0
86 1 53.3603 31.2785 8.24851 0 0 0
88 3 52.6531 30.5194 9.29729 0 0 0
108 6 55.2441 30.2006 8.26848 0 0 0
118 6 53.7743 32.1755 8.71322 0 0 0
ITEM: TIMESTEP
125
ITEM: NUMBER OF ATOMS
122
ITEM: BOX BOUNDS pp pp pp
0.0000000000000000e+00 6.0000000000000000e+01
0.0000000000000000e+00 6.0000000000000000e+01
0.0000000000000000e+00 6.0000000000000000e+01
ITEM: ATOMS id type xu yu zu vx vy vz
7 3 28.9166 33.5765 52.4326 0 0 0
8 3 29.2512 32.5687 51.5002 0 0 0
12 3 29.5147 31.763 48.5953 0 0 0
13 3 29.6887 31.0541 47.3984 0 0 0
29 3 28.372 31.4623 51.3986 0 0 0
30 3 27.1424 31.4446 52.0686 0 0 0
37 6 24.3582 32.2022 51.6415 0 0 0
40 6 28.573 32.0941 48.8145 0 0 0
41 6 28.8711 30.8566 46.8139 0 0 0
65 6 28.6181 30.6442 50.8354 0 0 0
66 6 26.5452 30.6273 51.9401 0 0 0
35 6 22.2428 32.5516 52.5488 0 0 0
1 1 23.3542 33.6861 54.0547 0 0 0
2 1 22.9988 32.384 53.3207 0 0 0
3 1 24.319 31.9059 52.6966 0 0 0
4 2 25.414 32.5507 53.4732 0 0 0
5 3 26.7302 32.5259 52.8831 0 0 0
6 3 27.6854 33.5508 53.1094 0 0 0
31 1 24.857 33.8881 53.8069 0 0 0
32 6 22.7801 34.5325 53.6683 0 0 0
33 6 23.1589 33.5829 55.1257 0 0 0
34 6 22.6236 31.6401 54.0292 0 0 0
36 6 24.3807 30.8164 52.7623 0 0 0
38 6 27.4911 34.3087 53.7631 0 0 0
39 6 29.5536 34.3596 52.604 0 0 0
67 6 25.0007 34.59 52.9765 0 0 0
68 6 25.3313 34.2939 54.7042 0 0 0
62 7 42.3526 24.0225 37.0961 0 0 0
17 1 33.1187 28.7231 44.0252 0 0 0
18 1 34.6457 28.5194 43.9288 0 0 0
19 1 35.0184 27.78 42.6336 0 0 0
20 1 36.5437 27.5733 42.5416 0 0 0
21 1 36.9063 26.8302 41.2403 0 0 0
44 6 32.6112 27.7541 44.0193 0 0 0
45 6 32.7656 29.3129 43.1742 0 0 0
46 6 35.1474 29.4927 43.9466 0 0 0
47 6 34.9926 27.9378 44.7893 0 0 0
48 6 34.5163 26.8081 42.6172 0 0 0
49 6 34.676 28.3648 41.7745 0 0 0
50 6 37.0456 28.5459 42.5602 0 0 0
51 6 36.8857 26.9911 43.4031 0 0 0
52 6 36.3983 25.8611 41.2267 0 0 0
53 6 36.5584 27.4155 40.3837 0 0 0
22 1 38.4293 26.612 41.1273 0 0 0
23 1 38.7889 25.8673 39.8221 0 0 0
24 1 40.3142 25.6449 39.7017 0 0 0
25 1 40.6826 24.9015 38.4004 0 0 0
26 5 42.4656 24.6591 38.2918 0 0 0
54 6 38.9339 27.5827 41.1439 0 0 0
55 6 38.7738 26.0287 41.9866 0 0 0
56 6 38.2782 24.8996 39.8092 0 0 0
57 6 38.4381 26.4529 38.9669 0 0 0
58 6 40.8197 26.6149 39.7179 0 0 0
59 6 40.6598 25.0615 40.5601 0 0 0
60 6 40.1956 23.9243 38.377 0 0 0
61 6 40.3558 25.4799 37.5336 0 0 0
15 5 31.0266 29.7196 45.5138 0 0 0
16 1 32.7972 29.4625 45.3271 0 0 0
43 6 33.1559 28.8677 46.1713 0 0 0
9 3 30.431 32.655 50.7237 0 0 0
10 4 31.3885 33.3313 51.1782 0 0 0
11 3 30.6045 32.0267 49.4666 0 0 0
14 3 30.9674 30.6222 47.0086 0 0 0
27 3 32.0721 30.9454 47.8344 0 0 0
28 3 31.8943 31.6482 49.0337 0 0 0
42 6 33.2948 30.4357 45.3116 0 0 0
63 6 33.0243 30.6762 47.6003 0 0 0
64 6 32.7199 31.8517 49.6046 0 0 0
76 1 52.3074 29.0068 3.3648 0 0 0
77 1 51.0755 29.8468 2.92978 0 0 0
99 6 51.9643 28.0655 3.80309 0 0 0
101 6 50.5728 29.327 2.10894 0 0 0
109 6 49.6878 29.1064 4.42677 0 0 0
74 1 57.8796 29.4985 3.1072 0 0 0
78 1 53.2656 28.6992 2.18527 0 0 0
79 1 56.884 29.7682 1.94731 0 0 0
82 1 54.4982 27.8716 2.6326 0 0 0
83 3 56.5388 28.5254 1.21934 0 0 0
85 3 55.4603 27.6753 1.52416 0 0 0
94 6 55.9275 29.7196 5.25123 0 0 0
95 6 57.4786 28.7284 3.76958 0 0 0