ITEM: TIMESTEP
0
ITEM: NUMBER OF ATOMS
122
ITEM: BOX BOUNDS pp pp pp
0.0000000000000000e+00 6.0000000000000000e+01
0.0000000000000000e+00 6.0000000000000000e+01
0.0000000000000000e+00 6.0000000000000000e+01
ITEM: ATOMS id type xu yu zu vx vy vz
7 3 28.9168 33.5768 52.4326 -0 0 -0
8 3 29.2512 32.5687 51.5002 0 0 -0
12 3 29.5146 31.763 48.5954 0 0 -0
13 3 29.6885 31.054 47.3982 -0 -0 -0
29 3 28.3721 31.4621 51.3984 -0 -0 0
30 3 27.1424 31.4446 52.0686 0 -0 -0
37 6 24.3579 32.2005 51.6475 0 -0 -0
40 6 28.5747 32.0935 48.814 0 -0 0
41 6 28.8743 30.8574 46.8161 -0 0 -0
65 6 28.6174 30.6465 50.837 0 0 0
66 6 26.5454 30.6276 51.9401 0 -0 -0
35 6 22.245 32.5511 52.5511 -0 -0 -0
1 1 23.354 33.6863 54.0549 0 -0 -0
2 1 22.9986 32.3838 53.3207 0 0 0
3 1 24.319 31.9058 52.6962 0 -0 0
4 2 25.414 32.5507 53.4732 -0 -0 -0
5 3 26.7302 32.5259 52.8831 0 -0 -0
6 3 27.6854 33.5508 53.1094 -0 -0 -0
31 1 24.8572 33.8886 53.8067 0 0 -0
32 6 22.7817 34.5301 53.6694 0 0 0
33 6 23.1595 33.5832 55.1225 -0 -0 -0
34 6 22.6249 31.6425 54.027 -0 0 -0
36 6 24.3806 30.8195 52.7621 -0 0 -0
38 6 27.491 34.309 53.7634 -0 0 -0
39 6 29.5513 34.3569 52.6034 -0 0 -0
67 6 24.9998 34.586 52.9813 0 -0 0
68 6 25.3301 34.2928 54.7018 -0 -0 -0
62 7 42.3526 24.0222 37.0955 -0 -0 -0
17 1 33.1184 28.723 44.025 -0 0 0
18 1 34.646 28.5196 43.9291 0 0 -0
19 1 35.0182 27.7799 42.6333 0 -0 0
20 1 36.544 27.5735 42.5419 -0 -0 0
21 1 36.9061 26.8301 41.2401 0 -0 -0
44 6 32.6129 27.7573 44.0193 0 -0 0
45 6 32.7668 29.3109 43.1771 -0 0 -0
46 6 35.1452 29.4884 43.9465 -0 0 0
47 6 34.9911 27.9403 44.7855 0 0 0
48 6 34.518 26.8116 42.6173 0 -0 -0
49 6 34.6773 28.3627 41.7776 -0 0 -0
50 6 37.0437 28.542 42.5601 -0 -0 -0
51 6 36.8844 26.9934 43.3997 -0 -0 0
52 6 36.4002 25.8647 41.2268 -0 0 -0
53 6 36.5597 27.4133 40.3869 0 0 0
22 1 38.4296 26.6121 41.1276 0 0 -0
23 1 38.7886 25.8671 39.8219 -0 -0 -0
24 1 40.3145 25.645 39.7019 -0 0 -0
25 1 40.6824 24.9015 38.4003 0 0 0
26 5 42.4656 24.6591 38.2918 0 0 0
54 6 38.9321 27.5792 41.1439 0 0 0
55 6 38.7725 26.0308 41.9834 -0 -0 0
56 6 38.2801 24.9031 39.8092 0 0 0
57 6 38.4394 26.4507 38.9701 0 0 -0
58 6 40.818 26.6116 39.7178 0 0 -0
59 6 40.6586 25.0635 40.5572 0 -0 0
60 6 40.1965 23.926 38.3771 0 0 -0
61 6 40.3564 25.4789 37.5352 0 -0 -0
15 5 31.0266 29.7196 45.5138 0 0 0
16 1 32.7974 29.4626 45.3273 -0 0 -0
43 6 33.1549 28.8693 46.1689 -0 0 0
9 3 30.431 32.655 50.7237 0 -0 0
10 4 31.3885 33.3313 51.1782 0 -0 -0
11 3 30.6045 32.0267 49.4666 0 0 -0
14 3 30.9674 30.6222 47.0086 0 0 -0
27 3 32.0718 30.9455 47.8345 0 -0 0
28 3 31.8945 31.6483 49.0339 0 0 -0
42 6 33.2935 30.4331 45.3116 -0 -0 -0
63 6 33.027 30.6755 47.5996 0 0 -0
64 6 32.7168 31.8509 49.6024 -0 0 -0
76 1 52.3074 29.0066 3.36505 0 0 0
77 1 51.0754 29.8469 2.92945 0 0 0
99 6 51.9654 28.0684 3.80177 -0 -0 -0
101 6 50.5745 29.3288 2.11171 0 0 -0
109 6 49.6888 29.1094 4.42564 0 0 0
74 1 57.8798 29.4982 3.10718 0 0 -0
78 1 53.2656 28.6993 2.18495 -0 0 0
79 1 56.8842 29.7683 1.94714 -0 0 -0
82 1 54.4981 27.8714 2.63268 -0 0 0
83 3 56.539 28.5253 1.21911 -0 -0 -0
85 3 55.4603 27.675 1.52398 0 0 0
94 6 55.9276 29.7198 5.25137 0 0 -0
95 6 57.4793 28.7298 3.76839 -0 0 -0
96 6 58.8006 29.0999 2.68115 -0 0 0
100 6 52.8662 29.5541 4.12407 -0 -0 -0
103 6 52.726 28.1454 1.4168 -0 -0 0
104 6 53.5992 29.6422 1.75164 0 0 0
107 6 54.0867 29.607 7.06879 -0 -0 0
111 6 54.9876 28.3593 3.47558 -0 -0 0
112 6 54.1674 26.8939 2.98366 -0 0 -0
113 6 57.141 28.2563 0.440889 -0 -0 0
116 6 55.3188 26.864 0.921809 -0 0 -0
70 4 52.9472 29.3484 9.62149 0 0 -0
81 1 50.0293 30.0763 4.05512 -0 -0 0
84 1 50.5481 30.9304 5.24297 -0 -0 0
87 1 49.4717 31.1659 6.32498 -0 0 0
102 6 51.4108 30.8124 2.55088 0 -0 0
110 6 49.1695 30.5818 3.61536 -0 -0 -0
114 6 51.389 30.423 5.71588 0 0 -0
115 6 50.8938 31.8957 4.87316 0 -0 -0
119 6 49.1399 30.2147 6.74132 -0 0 -0
120 6 48.6136 31.6885 5.90232 0 -0 0
121 6 49.8857 31.7714 7.13121 -0 0 -0
71 1 57.082 31.4754 4.68135 0 -0 0
72 1 58.2495 30.7546 3.947 0 -0 0
73 1 56.3473 30.6022 5.73443 -0 -0 0
75 1 55.1916 31.3627 6.43549 -0 0 -0
89 6 56.365 31.8501 3.95087 0 -0 -0
90 6 57.4992 32.3444 5.1902 -0 0 0
91 6 58.7332 31.4758 3.28826 0 -0 0
92 6 58.9881 30.4576 4.69155 0 -0 -0
93 6 57.0682 30.2699 6.48141 -0 -0 0
97 6 55.5875 32.27 6.89178 -0 -0 0
98 6 54.4527 31.651 5.68783 -0 -0 -0
105 6 57.334 30.4704 1.24505 -0 0 -0
106 6 55.9746 30.2354 2.32477 0 0 -0
69 8 51.6322 31.0906 9.96496 -0 0 -0
122 7 51.1844 30.5619 10.658 -0 0 -0
117 6 52.6203 31.5927 7.51245 -0 -0 0
80 1 54.4988 30.5055 7.52817 0 0 0
86 1 53.3603 31.2786 8.24854 -0 -0 -0
88 3 52.6531 30.5194 9.29729 -0 -0 -0
108 6 55.2415 30.2017 8.26587 -0 -0 0
118 6 53.7736 32.1742 8.71254 -0 0 0
ITEM: TIMESTEP
1000
ITEM: NUMBER OF ATOMS
122
ITEM: BOX BOUNDS pp pp pp
0.0000000000000000e+00 6.0000000000000000e+01
0.0000000000000000e+00 6.0000000000000000e+01
0.0000000000000000e+00 6.0000000000000000e+01
ITEM: ATOMS id type xu yu zu vx vy vz
7 3 28.6731 33.6166 52.2875 0.00233146 -0.00263646 0.00197266
8 3 28.8449 32.7892 51.14 0.00244154 -0.00147549 0.00130686
12 3 29.3169 31.9154 48.1339 -0.000553705 0.000482032 0.00179768
13 3 29.6322 31.1438 46.9985 -0.00288304 -0.00117064 0.00236544
29 3 27.8169 31.8334 50.905 0.00252282 -0.00151014 0.000745238
30 3 26.6405 31.7953 51.6772 0.0022192 -0.00168181 4.9807e-05
37 6 24.6506 34.6283 53.6012 0.0031284 -0.00278671 -0.0118281
40 6 28.3581 32.2488 48.234 -0.000225195 0.00110019 0.00288632
41 6 28.8879 30.9006 46.3449 -0.00392665 -0.00224732 0.00395431
65 6 27.9054 31.1267 50.1748 0.00305096 -0.00169048 0.000983774
66 6 25.9093 31.1219 51.4485 0.00195055 -0.001253 -0.000353947
35 6 22.7905 34.1585 54.9899 0.00751883 0.00881461 -0.00556089
1 1 24.0191 32.4212 55.5136 -0.00348182 0.00289598 -0.000762296
2 1 23.2108 33.2718 54.5155 0.00168088 0.00469487 -0.0030333
3 1 24.2235 33.6437 53.411 0.0022828 -0.00369963 -0.00520394
4 2 25.2652 32.6042 53.5026 0.00151864 -0.00351633 0.000331353
5 3 26.4717 32.6638 52.768 0.00210642 -0.00308108 0.00122906
6 3 27.5138 33.5552 53.0885 0.00205179 -0.003315 0.00167954
31 1 25.0839 31.7095 54.6581 -0.000571849 0.0012395 0.00415402
32 6 24.5055 33.0705 56.2416 -0.00590094 0.00125339 0.00231967
33 6 23.3877 31.708 56.0436 -0.00697616 0.00359868 -0.00398097
34 6 22.3999 32.6776 54.0941 -0.00260637 0.00920399 -0.00114254
36 6 23.7546 33.6356 52.4271 0.00229385 -0.00909691 -0.00516498
38 6 27.4236 34.1678 53.8991 0.00160756 -0.00358425 0.00183362
39 6 29.3898 34.2914 52.5548 0.00218411 -0.00265585 0.00241674
67 6 26.0076 31.5655 55.2186 -0.00141799 0.0052452 0.00657669
68 6 24.7169 30.7444 54.3088 0.00177489 -0.000846899 0.00745376
9 3 30.0155 32.9124 50.327 0.00176244 0.000172807 0.000593517
62 7 42.7036 24.0246 37.1631 0.000802227 0.00557363 -0.00065185
17 1 33.2971 28.7378 43.9464 -0.000478298 0.000410911 0.000703928
18 1 34.8128 28.6046 43.6935 -0.000687718 0.00133908 -0.00165737
19 1 35.1135 27.5823 42.5703 -0.00264793 -0.000904946 -0.000663687
20 1 36.6397 27.4362 42.3848 -0.00283294 -0.000198862 -0.00390557
21 1 37.0294 26.3972 41.3098 -0.00158312 -0.00327107 -0.00065512
44 6 32.8735 27.745 44.0983 0.000816293 0.000386551 0.00415563
45 6 32.8282 29.1801 43.0675 -0.00247412 -0.00325772 -7.75642e-05
46 6 35.2167 29.5792 43.4191 -0.00216952 0.00115555 -0.00449203
61 6 40.4765 25.0427 37.6597 0.00257468 0.00722544 0.00113381
48 6 34.6916 26.6117 42.8311 -0.00116557 -0.000682158 0.00256249
49 6 34.6614 27.9152 41.636 -0.00483741 -0.00281933 -0.000286387
50 6 37.0508 28.4061 42.1048 -0.00501737 -0.000380702 -0.00774349
51 6 37.0876 27.1378 43.3327 -0.00104428 0.00429816 -0.00333499
52 6 36.6478 25.4153 41.5896 0.000169175 -0.0029145 0.00298741
53 6 36.5848 26.6851 40.3572 -0.00258544 -0.00670233 -0.00122397
22 1 38.5699 26.3258 41.1626 -0.00100598 -0.00051645 0.000144524
23 1 39.0053 25.4115 39.9951 0.00128696 -0.000709045 0.00116601
24 1 40.5424 25.4059 39.8078 0.00143175 0.000304882 0.00194099
25 1 40.9687 24.6316 38.541 0.00116708 0.00312212 6.20065e-06
26 5 42.7514 24.7666 38.3019 0.00119941 -0.000104964 0.00303122
54 6 38.9589 27.3277 40.9809 -0.00331757 0.000307197 -0.000262085
55 6 39.0063 25.9547 42.0899 -0.00115386 0.00145204 0.00100172
56 6 38.6623 24.3939 40.1817 0.00161323 -0.00070754 0.00177394
57 6 38.5379 25.768 39.0773 0.000876704 -0.00125204 0.00116408
58 6 40.8971 26.4329 39.7215 0.000699931 0.000788415 0.00469001
59 6 41.0128 24.9529 40.6805 0.00076013 -0.00159863 0.0013151
60 6 40.7041 23.5784 38.6343 -0.00191588 0.00361375 -0.00318959
47 6 35.3002 28.2749 44.611 0.000951776 0.00368848 -0.00168414
15 5 31.1986 29.6459 45.3974 -0.00255041 0.000894847 -0.001648
16 1 32.9901 29.6015 45.1846 -0.00197889 0.00336709 -0.00179988
43 6 33.4501 29.1474 46.0622 -0.000757123 0.00601697 -0.00106921
64 6 32.3957 32.1277 49.4365 0.00177464 0.00265387 -0.00400144
10 4 30.9262 33.6848 50.7243 0.00141845 0.00117461 -8.59009e-06
11 3 30.2986 32.2445 49.1034 0.000837281 0.0011239 0.000284321
14 3 30.9512 30.708 46.7658 -0.00294609 -0.000513159 -0.000340668
27 3 31.9586 31.1211 47.6637 -0.00155853 0.00148862 -0.00256273
28 3 31.6365 31.8778 48.8027 0.000560825 0.00209321 -0.00232603
42 6 33.3718 30.6126 45.0428 -0.00373261 0.00366314 -0.00441035
63 6 32.936 30.8643 47.5255 -0.00145428 0.00279842 -0.0042591
76 1 52.1999 28.966 3.42887 0.000351211 8.52579e-05 0.000224437
77 1 50.9256 29.8129 3.15913 0.00041597 0.000241573 0.000438009
99 6 51.9067 27.94 3.6511 0.000449891 9.07795e-05 0.000380125
101 6 50.4766 29.4758 2.22483 0.000354459 0.000510305 0.000370615
109 6 49.5761 28.6628 4.40737 0.000409881 -0.000224227 -0.000255831
74 1 57.9509 29.2878 3.10322 -0.000195923 -0.000376785 -0.000279775
78 1 53.1721 28.9608 2.2198 -0.000178518 -7.87013e-05 -0.000201804
79 1 57.0058 29.8983 2.03376 -0.000567594 0.000679005 0.000694987
82 1 54.4488 28.1253 2.48837 -0.000206317 -0.000393613 -0.000845658
83 3 56.487 28.8714 1.10159 -0.000574305 0.00160073 -0.000293509
85 3 55.3342 28.0909 1.30071 -0.000183187 0.000860049 -0.000872949
94 6 56.0036 29.7498 5.19848 -0.000149761 -8.39773e-05 -0.000116373
95 6 57.4186 28.529 3.6768 -0.000227001 -0.000690162 -0.000723182
96 6 58.7686 28.7817 2.59005 -0.000535099 -0.000153044 -0.00104092
100 6 52.7237 29.3665 4.29685 0.000739477 0.00039782 -0.000154087
103 6 52.6547 28.5518 1.35198 -0.000575273 -6.81741e-05 2.97891e-05
104 6 53.46 29.9869 1.99099 2.57193e-05 -0.000102022 -4.945e-05
107 6 53.9644 29.9952 6.71189 -0.000328501 0.000448551 5.09161e-05
111 6 54.9686 28.5294 3.35703 -0.000297219 -0.00130102 -0.000369177
112 6 54.169 27.1006 2.73281 -0.00010432 -0.000571001 -0.0014726
113 6 57.0193 28.7052 0.247539 -0.000913601 0.00288283 -0.000754526
116 6 55.0787 27.4442 0.554456 8.13787e-05 0.0011624 -0.00122554
70 4 52.45 29.6756 9.07773 -0.000693683 0.00103074 -0.000420243
81 1 49.8395 29.7109 4.26512 0.000302654 -0.000139101 0.000172804
119 6 48.881 29.173 6.87128 0.000994244 -0.00251016 -1.29245e-05
114 6 51.1295 29.8201 6.01881 0.000532345 -0.00151819 -9.94314e-05
92 6 59.214 29.7768 4.78396 -0.000209202 -0.00247549 0.000162384
93 6 57.1643 29.8226 6.52719 -0.000869326 -0.00111095 0.000554431
118 6 54.1923 32.1976 8.82899 -0.000233837 0.00112777 -0.000628011
84 1 50.2482 30.3297 5.6294 0.000488767 -0.00111583 0.000525785
87 1 49.1271 30.2187 6.68673 0.000786888 -0.00233213 0.000719309
102 6 51.2074 30.8578 3.02966 0.000405725 0.000280907 0.000733141
110 6 48.9488 30.2273 3.90738 0.000371727 0.000219933 0.000519088
86 1 53.604 31.5719 8.15782 -0.000209422 0.000854993 -0.000395062
115 6 50.4972 31.3817 5.4901 0.000340759 -0.000966998 0.00138521
88 3 52.5595 30.9156 8.96793 -0.000365048 0.00101189 -0.000226861
120 6 48.2316 30.7411 6.35022 0.000522607 -0.00237815 0.00135112
121 6 49.4595 30.6672 7.62294 0.000712573 -0.00293542 0.00103469
71 1 57.5939 31.2028 4.90565 0.00106623 -0.00124704 0.00084796
72 1 58.5773 30.3192 4.08501 0.000335601 -0.00148363 0.000435789
73 1 56.6014 30.4232 5.81267 4.32226e-05 -0.000601869 0.000263549
75 1 55.6385 31.3689 6.58091 0.00010541 -1.60671e-05 -0.000313905
89 6 57.0359 31.8425 4.22186 0.00162387 -0.000653321 0.000948295
90 6 58.1905 31.859 5.53946 0.00142183 -0.00174228 0.00102599
91 6 59.2257 30.9821 3.51196 0.000999694 -0.00172317 0.000910134
108 6 55.0464 29.9483 8.10719 -0.00048146 0.000782558 0.000195669
80 1 54.5551 30.6084 7.39241 -0.000257119 0.000588824 -0.000137457
97 6 56.2238 31.9882 7.26063 0.000183441 6.96776e-05 -0.000459226
98 6 55.1418 32.0268 5.86779 0.000319177 -0.000397561 -0.000814729
105 6 57.5546 30.6432 1.45754 -0.00100967 0.00148947 0.00132166
106 6 56.1704 30.4126 2.5089 -0.000670693 -0.000215336 0.00148191
69 8 51.6607 31.6576 9.64364 -0.000385417 0.00103597 -0.000338742
122 7 50.9834 31.1871 10.1731 -0.000535749 0.00107007 -0.000500728
117 6 53.1025 32.2204 7.43956 -9.77394e-05 0.000632881 -0.000673613
ITEM: TIMESTEP
2000
ITEM: NUMBER OF ATOMS
122
ITEM: BOX BOUNDS pp pp pp
0.0000000000000000e+00 6.0000000000000000e+01
0.0000000000000000e+00 6.0000000000000000e+01
0.0000000000000000e+00 6.0000000000000000e+01
ITEM: ATOMS id type xu yu zu vx vy vz
7 3 28.3707 33.7196 51.6221 0.00452447 -0.000893008 0.00383036
8 3 28.663 32.9253 50.4755 0.00218199 0.0026282 0.0010904
12 3 28.8468 32.2266 47.4507 -0.00330934 0.00149178 2.90132e-05
13 3 29.1373 31.6842 46.1965 -0.00379942 0.000609845 -0.00025834
29 3 28.1467 31.5983 50.4743 0.00266396 0.00223833 -0.00221238
30 3 27.4248 31.0889 51.5746 0.00579706 -0.00325673 -0.00262457
40 6 27.8864 32.1669 47.7889 -0.00286824 -0.000131833 0.000994833
41 6 28.4018 31.1956 45.6857 -0.00354953 -0.0010556 0.000973997
65 6 28.3417 30.9528 49.7089 0.00210362 0.00417828 -0.00399144
66 6 27.103 30.1212 51.5553 0.00833851 -0.00406345 -0.00455721
36 6 24.3431 31.2506 53.3035 0.00482665 -0.0124006 -0.00472209
37 6 24.896 32.7529 54.0771 -0.000443759 -0.00634589 -0.0139425
35 6 23.9684 31.6765 55.9886 0.00277541 0.00535093 -0.00407449
1 1 26.0696 31.0663 56.1516 0.000435714 -0.00223596 -0.0021987
2 1 24.7014 31.079 55.4464 0.000564071 0.000822467 -0.0020744
3 1 25.0101 31.6691 54.0572 0.00200175 -0.0062412 -0.00564004
4 2 26.4208 31.2903 53.7802 0.00329654 -0.00550575 -0.0013996
5 3 27.1457 31.8884 52.7022 0.00401614 -0.00568493 -0.00132022
6 3 27.6106 33.2237 52.7049 0.00349712 -0.00587517 0.000574636
31 1 27.137 30.9892 55.0388 0.00290523 -0.00273072 8.08245e-05
32 6 26.1929 31.9961 56.7068 0.000974452 -0.0020118 -0.0026936
33 6 26.1532 30.229 56.8444 -0.00130852 -0.0018367 -0.00150572
34 6 24.3309 30.0595 55.3398 -0.00322508 0.00157374 0.00391596
38 6 27.4171 33.8269 53.5043 0.00202728 -0.00775582 0.00163755
39 6 28.7261 34.6729 51.6949 0.00569202 -0.0015448 0.00667902
67 6 27.9419 31.6971 55.2366 0.00064001 -0.000193405 0.000221183
68 6 27.5564 29.9854 54.9717 0.00577398 -0.00174773 0.00331091
9 3 29.559 33.4153 49.4732 -0.000688703 0.0039959 -0.000244358
11 3 29.8545 32.871 48.2024 -0.00406407 0.0035908 -0.00146672
62 7 42.3033 23.748 38.2357 -0.00460907 -0.00715218 9.51258e-05
17 1 33.126 29.8633 43.6659 0.00201373 0.00783761 -0.00154157
18 1 33.9241 28.5186 43.6492 0.000490671 0.00736198 0.0061488
19 1 35.3755 28.6639 43.0971 -0.000103545 0.00379669 0.0056465
20 1 36.2234 27.3574 43.198 5.61029e-05 0.00410525 0.00619231
21 1 37.5974 27.4425 42.4709 -0.000341987 0.00604659 0.0044573
44 6 32.997 30.1964 42.6361 0.000649824 0.00409319 -0.00258192
60 6 40.4234 25.1072 39.0681 0.00578548 -0.00342867 0.00040849
46 6 33.9732 28.1249 44.6644 0.000749199 0.0129294 0.00829442
48 6 35.315 28.9673 42.0519 -0.000563299 0.00228774 0.00523497
49 6 35.8933 29.4499 43.6468 0.000249828 0.00472931 0.00397994
50 6 36.3926 27.1245 44.2493 0.000963427 0.00480222 0.00620078
51 6 35.6527 26.5392 42.7588 -7.95674e-05 0.00416539 0.00625662
52 6 37.4185 27.7482 41.4401 -0.0011887 0.0094914 0.00562651
53 6 38.2119 28.2094 42.9425 0.000707059 0.00412419 0.00621649
47 6 33.3857 27.7952 43.0368 0.000165649 0.00398931 0.0104192
16 1 31.7272 29.7562 44.3468 0.00319389 0.00324445 -0.000503376
61 6 41.8959 25.5539 39.9402 0.00400584 -0.00807435 0.00577542
22 1 38.3802 26.0917 42.4636 -0.000419751 0.0057231 -0.00105003
23 1 39.6301 26.1391 41.535 -0.0010537 0.000563642 -0.00282086
24 1 40.3095 24.7692 41.2202 -0.0041534 -0.0019172 -0.000492804
25 1 41.0945 24.8178 39.8767 0.00208506 -0.00571463 0.00266114
26 5 41.8253 23.2346 39.4008 -0.000641175 -0.00651522 0.00200377
54 6 38.6929 25.838 43.4765 -2.54248e-05 0.00415406 -0.00156467
55 6 37.7166 25.3041 42.1068 -0.00189799 0.00705253 -0.00123474
56 6 39.3141 26.5846 40.5917 -0.000533102 0.000357909 -0.00309252
57 6 40.3711 26.8102 41.9693 0.00183547 -0.00119415 -0.00503441
58 6 40.9876 24.5052 42.0318 -0.00867724 -0.00525989 0.00219806
59 6 39.5534 23.988 41.1414 -0.00672645 0.000908265 -0.00380952
43 6 31.2083 28.8898 43.9365 0.00608903 0.000842924 0.000906952
42 6 31.8544 29.5908 45.4167 0.00456213 0.00502003 -0.000391491
15 5 30.6378 31.188 44.0462 -0.00352654 -0.00294137 0.000231035
45 6 33.7083 30.6194 44.1924 0.000126605 0.0104613 -0.00322342
64 6 31.905 33.478 48.1461 -0.00432695 0.00144611 -0.00356558
10 4 30.2495 34.4262 49.7463 0.00267181 0.0017864 -0.00279284
63 6 32.3758 32.5955 45.9568 -0.00654075 0.00577431 -0.00479875
14 3 30.4189 31.8356 45.6418 -0.0047238 0.000643035 -0.00134363
27 3 31.4424 32.4951 46.3557 -0.00582379 0.00383832 -0.00360944
28 3 31.1566 33.0114 47.6337 -0.00525507 0.00248919 -0.0031596
76 1 52.1578 28.893 3.39776 0.000115863 0.000783101 0.000294379
77 1 50.8555 29.6805 3.08484 -0.00060258 -0.00123638 -0.0014783
99 6 51.8948 27.8854 3.7199 0.00119197 0.00143871 0.00322355
70 4 52.5881 29.4655 9.13414 0.00129516 -0.00149327 0.00260278
109 6 49.6117 28.7516 4.60561 -0.000741086 0.00106597 -0.00042869
81 1 49.8448 29.7603 4.26451 -0.00056704 0.000628093 -0.0016047
119 6 48.8873 29.8326 6.91677 0.00107417 0.00420136 -0.000511153
114 6 51.1778 30.1352 5.9446 -3.23327e-05 0.000688649 -0.00225997
74 1 57.9862 29.3806 3.15201 -0.000824975 0.00121901 5.93925e-05
78 1 53.117 28.8003 2.1778 -0.000264315 -0.00169617 0.000390328
79 1 57.0058 29.8614 2.04743 -0.00107776 0.000789524 -0.000100643
82 1 54.4438 28.0754 2.52775 0.000274366 -0.000117611 0.00184201
83 3 56.5395 28.7512 1.1842 -0.000800674 3.86329e-06 0.000650298
85 3 55.3688 27.9926 1.3719 0.000252571 -0.00115965 0.00201644
94 6 56.023 29.7742 5.21123 -0.00107457 0.00122491 -0.00156282
95 6 57.5024 28.6185 3.76293 -0.000268085 0.00108671 0.000335341
96 6 58.8415 28.9062 2.67085 -0.000861706 0.00113392 7.80058e-05
100 6 52.6833 29.3835 4.21712 -1.22084e-05 0.00349189 -0.00124539
103 6 52.6164 28.2655 1.37065 5.83657e-06 -0.00403857 0.00177474
92 6 59.1983 30.0598 4.80463 -3.35622e-05 0.00210655 -0.00106231
93 6 57.1751 30.0217 6.52559 -0.00036786 -0.000756289 -0.00161756
111 6 54.9187 28.5786 3.36998 -0.000138734 0.000999767 0.0014074
112 6 54.2233 27.0585 2.85234 0.000717773 6.4276e-05 0.00271313
113 6 57.1181 28.5189 0.376912 -0.000710318 -0.000532732 0.000869446
116 6 55.1428 27.3068 0.651439 0.000815076 -0.00231712 0.00294175
104 6 53.3463 29.8069 1.82811 -0.0010851 -0.00253429 -0.00256047
101 6 50.3546 29.1938 2.24793 -0.000376389 -0.00348076 -0.000308644
107 6 54.092 29.8056 6.86479 0.000921488 -0.0013955 -7.46173e-06
86 1 53.5149 31.451 8.15178 -9.70548e-05 -0.00175974 3.46939e-05
102 6 51.1105 30.6919 2.76851 -0.0015655 -0.00164571 -0.00356369
110 6 48.9228 30.1956 3.87886 -0.000433889 0.000467163 -0.0021046
115 6 50.6328 31.5988 5.12134 0.00153211 0.000777711 -0.00364485
120 6 48.3662 31.3324 6.12287 0.000833127 0.0024722 -0.00319578
71 1 57.4703 31.3558 4.84169 -0.000575927 0.00101344 -0.000160714
72 1 58.5273 30.5117 4.07415 -0.000661553 0.00162506 -0.000783236
73 1 56.5558 30.5309 5.78716 -0.000468903 0.000248404 -0.000840081
75 1 55.5057 31.4104 6.51299 7.59233e-07 -0.000340259 0.000509955
89 6 56.8584 31.905 4.12606 -0.000533745 0.00166031 0.000299668
90 6 58.0044 32.096 5.43744 -0.000463995 0.000578335 0.000279497
91 6 59.1267 31.1904 3.46737 -0.00162702 0.00194014 -0.00138456
80 1 54.5902 30.5788 7.44967 0.000404601 -0.00122226 0.000203797
97 6 56.0181 32.1754 7.09637 0.000538403 -0.00132764 0.00133217
98 6 54.8876 31.9096 5.76676 3.88656e-05 0.00120099 0.00150944
105 6 57.5108 30.5953 1.41933 -0.0010119 0.000306608 -0.000611932
106 6 56.1446 30.3629 2.48913 -0.0011557 0.000847449 -0.000318345
117 6 52.905 31.9545 7.40168 -0.000637204 -0.00231119 0.00010366
88 3 52.6026 30.7121 9.0439 0.00063846 -0.00158783 0.000914194
69 8 51.7292 31.3855 9.81741 0.000815835 -0.000755656 0.000428685
122 7 51.1384 30.8658 10.4016 0.00128621 -4.26788e-05 0.00153865
118 6 54.0157 32.2116 8.75081 -0.000328865 -0.00122711 -0.000447767
121 6 49.6128 31.3796 7.37828 0.00111329 0.00502076 -0.00348125
84 1 50.3206 30.6152 5.47243 0.000578875 0.00145749 -0.0025879
87 1 49.2202 30.8006 6.54239 0.00106373 0.00347844 -0.00238963
108 6 55.2028 30.0907 8.20772 0.000809556 -0.000918027 7.24191e-05
ITEM: TIMESTEP
3000
ITEM: NUMBER OF ATOMS
122
ITEM: BOX BOUNDS pp pp pp
0.0000000000000000e+00 6.0000000000000000e+01
0.0000000000000000e+00 6.0000000000000000e+01
0.0000000000000000e+00 6.0000000000000000e+01
ITEM: ATOMS id type xu yu zu vx vy vz
2 1 28.2513 27.8362 54.1548 0.000309278 0.00440677 -0.00423026
66 6 29.79 29.5016 50.1206 0.0038893 -0.00349825 0.00190522
34 6 28.1944 26.7483 54.1176 -0.000116278 0.00440171 -0.00344101
31 1 29.8531 29.5951 53.5855 0.00306278 -0.000735621 -0.00129941
36 6 27.6747 27.7275 52.053 0.00286704 0.00309666 -0.00720843
1 1 29.6901 28.3253 54.4292 -0.000126674 0.00219653 0.00258532
35 6 27.5979 28.1894 54.9526 -0.00216087 0.00418903 -0.00615706
3 1 27.819 28.4791 52.8292 0.00180772 0.00174781 -0.00570551
37 6 26.8895 29.032 52.965 0.00199265 0.00267587 -0.00821802
4 2 28.9329 29.3567 52.4578 0.00312297 -0.00070303 -0.00241164
32 6 29.8345 28.5494 55.4861 -0.00287263 0.00273725 0.00284654
41 6 28.719 32.1365 44.7386 -0.00525462 0.00477821 0.00106045
7 3 27.925 32.7093 51.1227 0.000670973 -0.0028565 -0.00407968
8 3 28.6046 32.6575 49.8763 0.00202192 -0.00498233 -0.00319902
12 3 28.6922 32.8089 46.7376 -0.00817132 0.00221316 0.00156784
13 3 29.1411 32.7796 45.4084 -0.00273172 0.00124138 0.00286668
29 3 29.2511 31.4417 49.544 0.00183011 -0.00553906 -0.00275895
30 3 29.275 30.3398 50.3901 0.00240578 -0.00367914 -0.000365013
40 6 27.9505 32.1627 47.0071 -0.0133781 0.00779964 0.00062737
10 4 28.4797 34.9286 49.4377 0.00338096 -0.00385803 0.00312629
38 6 27.4275 31.6285 52.8756 0.00105209 0.000963789 -0.00223363
67 6 29.5562 30.4664 54.1694 0.00539734 0.00230823 -0.00465569
39 6 27.4428 33.5607 51.4112 0.000558158 -0.00204309 -0.00666726
11 3 29.2196 33.7287 47.6774 3.91183e-05 -0.00200857 0.000878321
9 3 28.7478 33.7774 49.013 0.0046872 -0.0030999 0.000809823
5 3 28.6504 30.4329 51.627 0.00279202 -0.000779148 -0.000833679
6 3 27.9177 31.5877 51.982 0.00171849 -0.00120447 -0.00176883
65 6 29.7853 31.3465 48.6803 0.0030713 -0.0057353 -0.00196999
49 6 33.9542 29.3585 41.8058 -0.0070939 -0.000560198 0.000912885
48 6 33.3861 28.5401 43.2686 0.0049308 0.000134869 0.00579464
19 1 34.1474 29.2096 42.8682 -0.000287936 0.00268011 0.000127792
20 1 35.5397 28.5535 43.0503 0.00292998 0.00845742 -0.00602525
58 6 37.3379 23.8459 43.7127 -0.00525223 0.00388715 0.00818864
55 6 36.9593 26.1849 43.8504 -0.00595482 0.000404015 0.00382119
57 6 37.9793 25.3792 41.1326 0.0022347 -0.00122139 0.0051559
50 6 36.2971 29.2008 42.6083 -0.00183327 0.00661819 -0.0168795
51 6 35.7469 28.4736 44.1175 0.0123274 0.0155693 -0.00731746
52 6 34.834 26.5133 42.7705 0.000509104 0.00630548 0.0005213
26 5 40.1566 22.9552 44.2327 2.57634e-05 0.000190126 0.00210766
56 6 36.3753 24.7876 41.4934 0.000667983 0.00287407 0.0019506
54 6 37.8254 27.1226 42.6531 0.00120989 0.000293772 0.00850772
21 1 35.6574 27.1363 42.4211 0.0019493 0.00452526 0.000742589
59 6 37.7246 23.0192 42.2117 -0.00878455 -0.000734987 0.00833993
60 6 39.9456 23.9941 42.1056 -0.00868785 -0.00184211 0.00309524
53 6 35.5755 27.2216 41.3375 0.00360337 0.000417768 0.00029302
61 6 39.5859 25.096 43.4363 -0.0051924 -0.00198902 0.00355421
22 1 36.9987 26.4251 42.7879 5.24591e-05 0.000820107 0.00413837
23 1 37.3021 25.1339 41.9507 0.000327087 0.000828303 0.00419204
24 1 37.8805 23.941 42.7722 -0.00583524 -0.00065737 0.00739218
25 1 39.4003 24.0962 43.0439 -0.00565566 -0.00243966 0.00492214
68 6 30.8785 29.7218 53.2382 0.00370758 -0.00653789 -0.00151085
33 6 30.4167 27.5716 54.1257 0.000162419 0.00135684 0.00535938
62 7 39.0749 22.9911 45.0563 -0.00986548 -0.0358885 -0.00929093
15 5 31.1518 33.2571 43.6257 0.00013863 0.00648418 -0.00187622
45 6 32.4237 31.2983 42.4767 -0.0212011 -0.0171431 0.00407465
17 1 32.6488 31.1406 43.5315 -0.00682718 -0.00766262 0.00242643
44 6 31.9275 30.4263 43.9285 0.00101309 -0.0074457 0.0170565
46 6 34.7659 31.266 43.1143 -0.00905088 0.00548298 -0.0131001
16 1 32.5748 32.4406 44.3632 -0.00205261 -0.0018042 -0.00640753
18 1 34.0713 30.5745 43.5914 -0.0018312 0.00420726 -0.00443982
42 6 33.4491 33.0754 44.2188 -0.000516509 -0.00525248 -0.0122779
47 6 34.3643 30.4583 44.6348 0.00734006 0.00916271 -0.00646169
14 3 30.2552 33.5619 45.0621 0.0012396 -0.00236748 0.00266088
27 3 30.7551 34.5341 45.9372 0.00125134 -0.00294894 0.00332339
63 6 31.5255 35.1444 45.6644 0.000792512 -0.00252618 0.00297378
43 6 32.4546 32.2112 45.422 0.00323388 0.00458066 -0.00442556
64 6 30.6091 35.3177 47.8694 -0.00153664 -0.00116119 0.00230841
28 3 30.2211 34.6246 47.2295 -8.84541e-05 -0.0021064 0.00245489
76 1 52.3442 28.9911 3.47483 0.000602745 0.00146923 0.000705984
77 1 51.0083 29.6135 2.98128 0.000304114 0.00052871 0.000661921
99 6 52.1193 28.0737 4.01876 0.00160046 0.00248573 0.00283282
109 6 49.8794 29.2349 4.79351 -0.000689058 -0.000890897 -0.000311155
107 6 54.2725 29.5153 7.23796 -0.000836016 -0.000769425 0.000214871
70 4 53.1969 29.2348 9.77556 -0.000174635 0.00217152 0.00138882
101 6 50.491 28.8675 2.37797 0.000882518 0.000312609 0.000433126
74 1 57.8453 29.6097 3.05401 0.00168507 -0.000162122 -0.000974065
78 1 53.3109 28.6765 2.30149 -0.000509951 0.000215643 3.00702e-05
79 1 56.8369 29.7451 1.88236 0.00130324 -0.00057644 -0.000710751
82 1 54.528 27.8213 2.74439 0.00012233 0.000739679 -0.00049687
83 3 56.5323 28.4358 1.26159 2.54647e-05 -0.000158561 -0.000718879
85 3 55.4861 27.5755 1.64066 -0.00108341 0.00104672 -0.00149715
94 6 56.0425 29.7023 5.39349 0.00238331 -0.000776743 0.000803666
95 6 57.507 28.8414 3.74923 0.00217791 -0.000232481 -0.000812019
96 6 58.7963 29.2696 2.64424 0.00175977 4.07584e-07 -0.000935598
100 6 52.8509 29.6735 4.15718 0.00105713 0.00293029 -0.00109272
103 6 52.7713 28.1309 1.52739 -0.00128732 -0.00115226 0.00153617
104 6 53.6502 29.6177 1.86904 -0.000850523 -0.000477289 -0.00174508
116 6 55.3705 26.7173 1.1016 -0.00253703 0.00167964 -0.0021928
111 6 55.036 28.3023 3.58021 0.000237576 0.00119213 -0.000827392
112 6 54.1693 26.8573 3.10525 0.000679667 0.000681318 -9.89178e-05
113 6 57.1403 28.1264 0.503315 -0.000824956 -0.000540714 -0.00124485
102 6 51.2198 30.4651 2.33469 -0.000252725 0.000651135 0.00064105
110 6 49.0841 30.3115 3.6527 -0.000309988 -0.000481924 5.64811e-05
115 6 50.7159 32.135 4.22454 -0.0019277 4.0568e-05 0.00249057
120 6 48.5978 32.0958 5.51952 -0.00311753 -0.0032707 0.000686822
121 6 49.9428 32.5912 6.55926 -0.00462998 -0.00188293 0.00199031
84 1 50.5345 31.3064 4.90914 -0.00182443 -0.000678352 0.00164783
87 1 49.5245 31.7632 5.98702 -0.00299033 -0.00217492 0.00121426
114 6 51.4737 31.0702 5.40933 -0.00210092 -0.000606127 0.00220113
71 1 56.8935 31.5417 4.59908 0.00144052 -0.000770722 0.000413422
72 1 58.1056 30.9271 3.83949 0.0011432 -0.000117668 -0.000495448
73 1 56.3482 30.6787 5.76936 0.001911 -0.000637578 0.000826359
75 1 55.1319 31.3431 6.46834 0.00105445 -0.00164595 0.000298173
89 6 56.088 31.7541 3.89623 0.000847088 -0.00118114 0.000969478
90 6 57.215 32.4994 5.00844 0.000785427 -0.000477948 0.000242931
91 6 58.4814 31.6722 3.13824 0.000708813 0.000213802 -0.000376046
80 1 54.5758 30.485 7.63247 0.00028649 -0.00117378 0.000345603
97 6 55.4308 32.3168 6.85634 -0.000238548 -0.000835477 -0.00073967
98 6 54.3416 31.4974 5.73364 0.00146838 -0.00273543 -0.000375916
105 6 57.2555 30.4044 1.12195 0.00136548 -0.000897225 -0.000954613
106 6 55.9124 30.2079 2.22767 0.00160865 0.000143806 -0.000858408
117 6 52.601 31.3791 7.58973 0.00107912 0.00127327 -0.000406262
92 6 58.901 30.7405 4.56107 0.00150329 7.26942e-05 -0.000843137
93 6 57.1446 30.5269 6.49794 0.00178619 -0.000284186 0.00103643
69 8 51.5561 30.7138 9.91742 -0.00204318 0.000406744 -0.00232667
122 7 51.1492 30.138 10.598 -0.00235822 0.000534227 -0.00240716
118 6 53.6739 32.0845 8.80108 0.00147678 0.000106246 -8.63775e-06
86 1 53.3614 31.1495 8.33618 0.000622067 0.000479479 -0.000184818
88 3 52.7217 30.3182 9.37126 -0.000611612 0.00137764 -0.000277229
119 6 49.3027 30.9455 6.67285 -0.00267085 -0.00288175 0.000474989
81 1 50.0432 30.0678 4.10971 -0.000444018 -0.000347412 0.000409522
108 6 55.3652 30.3207 8.36595 -8.44943e-05 -0.00218824 0.0005176
ITEM: TIMESTEP
4000
ITEM: NUMBER OF ATOMS
122
ITEM: BOX BOUNDS pp pp pp
0.0000000000000000e+00 6.0000000000000000e+01
0.0000000000000000e+00 6.0000000000000000e+01
0.0000000000000000e+00 6.0000000000000000e+01
ITEM: ATOMS id type xu yu zu vx vy vz
35 6 29.4313 25.8518 53.0892 -0.00213525 -0.00236909 -0.00306487
36 6 28.3537 27.891 51.677 0.0110723 0.0115005 0.0133807
3 1 29.3983 27.611 51.8135 0.00919431 -0.000544485 0.00298313
2 1 29.5216 26.1064 52.0333 0.00227902 -0.00192331 -0.00258071
34 6 28.7396 25.5893 51.4774 0.0018008 0.0036966 -0.00713543
37 6 29.8206 28.1484 52.6625 0.0199058 -0.00764297 0.00214615
66 6 29.665 28.5905 48.1291 -0.00472175 -0.00118998 -0.00162825
44 6 30.0556 31.4436 43.393 0.000836031 -0.0094555 -0.00942883
15 5 29.4505 34.411 42.9729 -0.000853862 0.00537486 -0.00246787
42 6 29.1677 32.7089 41.3606 -0.0120215 0.00174707 0.00810511
40 6 29.1463 32.7687 47.3629 -0.00176281 -0.000409222 0.000903085
13 3 29.2344 33.6332 45.4925 0.00134109 -0.000894738 -0.00246335
12 3 29.7779 33.2214 46.7022 -0.00234001 0.0010499 0.00135056