Created by /home/rramji/scripts/createLammpsInput.pl on Mon Aug 28 11:58:00 2023

          56 atoms
          57 bonds
         101 angles
         145 dihedrals
          39 impropers

           7 atom types
           9 bond types
           4 angle types
           5 dihedral types
           1 improper types

		   0.000000  30.509600 xlo xhi
		   0.000000  11.272900 ylo yhi
		   0.000000   9.642200 zlo zhi

Masses

    1 1.2011E+01 # C_R    
    2 1.0080E+00 # H_     
    3 1.5999E+01 # O_2    
    4 1.5999E+01 # O_R    
    5 1.2011E+01 # C_3    
    6 3.2060E+01 # S_3    
    7 1.0080E+00 # H___A  

Pair Coeffs

    1    0.09510    3.47299 # C_R C_R 
    2    0.01520    2.84642 # H_ H_ 
    3    0.09570    3.03315 # O_2 O_2 
    4    0.09570    3.03315 # O_R O_R 
    5    0.09510    3.47299 # C_3 C_3 
    6    0.34400    3.59032 # S_3 S_3 
    7          0    2.84642 # H___A H___A 

Bond Coeffs

    1      350     1.02 # C_R H_ 
    2      525     1.39 # C_R C_R 
    3      700     1.25 # O_2 C_R 
    4      525     1.35 # O_R C_R 
    5      350     1.42 # O_R C_3 
    6      350     1.53 # C_3 C_3 
    7      350     1.09 # C_3 H_ 
    8      350      1.8 # S_3 C_3 
    9      350     1.36 # S_3 H___A 

Angle Coeffs

    1       50      120 # X C_R X 
    2       50      120 # X O_R X 
    3       50  109.471 # X C_3 X 
    4       50     92.1 # X S_3 X 

Dihedral Coeffs

    1 0.166667       -1        6 # C_R O_R C_3 X 
    2 0.111111        1        3 # X C_3 C_3 X 
    3    3.125       -1        2 # X C_R C_R X 
    4     6.25       -1        2 # X O_R C_R X 
    5 0.333333        1        3 # X S_3 C_3 X 

Improper Coeffs

    1  13.3333        0 # C_R X X X 

Atoms

       1        1        1 -0.15000000    8.07830    0.41560    0.65380    0    0    0
       2        1        2  0.15000000    8.93160    0.97510    0.94310    0    0    0
       3        1        1 -0.15000000    8.17320   -0.51370   -0.37790    0    0    0
       4        1        1 -0.15000000    7.05530   -1.24750   -0.75850    0    0    0
       5        1        1  0.08620000    5.82250   -1.05840   -0.11780    0    0    0
       6        1        1  0.39760000    4.65010   -1.82900   -0.53820    0    0    0
       7        1        3 -0.57000000    4.80540   -2.98070   -0.92500    0    0    0
       8        1        1  0.08620000    3.30190   -1.26220   -0.50840    0    0    0
       9        1        1 -0.15000000    3.07980    0.10820   -0.73600    0    0    0
      10        1        1 -0.15000000    1.79470    0.63490   -0.69160    0    0    0
      11        1        1  0.08250000    0.71490   -0.20350   -0.42920    0    0    0
      12        1        4 -0.36250000   -0.52810    0.37240   -0.39710    0    0    0
      13        1        5  0.12000000   -1.76370   -0.33670   -0.16750    0    0    0
      14        1        5 -0.16000000   -2.96790    0.60070   -0.26210    0    0    0
      15        1        5 -0.16000000   -4.28250   -0.15610   -0.02320    0    0    0
      16        1        5 -0.16000000   -5.48060    0.79290   -0.15710    0    0    0
      17        1        5 -0.16000000   -6.79660    0.03860    0.07530    0    0    0
      18        1        5 -0.16000000   -7.99690    0.97850   -0.09920    0    0    0
      19        1        5 -0.16000000   -9.31170    0.22210    0.13230    0    0    0
      20        1        5 -0.16000000  -10.51520    1.15020   -0.07800    0    0    0
      21        1        5 -0.16000000  -11.82750    0.38910    0.15630    0    0    0
      22        1        5  0.07000000  -13.03690    1.29900   -0.07000    0    0    0
      23        1        6 -0.41000000  -14.53800    0.33040    0.22860    0    0    0
      24        1        1 -0.15000000    0.90770   -1.57040   -0.21530    0    0    0
      25        1        1 -0.15000000    2.19530   -2.09170   -0.25930    0    0    0
      26        1        1 -0.15000000    5.74670   -0.12840    0.93170    0    0    0
      27        1        1 -0.15000000    6.86560    0.60560    1.30960    0    0    0
      28        1        2  0.15000000    9.09910   -0.66390   -0.87250    0    0    0
      29        1        2  0.15000000    7.13220   -1.95960   -1.54110    0    0    0
      30        1        2  0.15000000    3.89630    0.74890   -0.95190    0    0    0
      31        1        2  0.15000000    1.62570    1.66740   -0.86020    0    0    0
      32        1        2  0.08000000   -1.86150   -1.12240   -0.91810    0    0    0
      33        1        2  0.08000000   -1.73160   -0.78570    0.82640    0    0    0
      34        1        2  0.08000000   -2.85710    1.39150    0.48150    0    0    0
      35        1        2  0.08000000   -2.97900    1.05430   -1.25450    0    0    0
      36        1        2  0.08000000   -4.37680   -0.96000   -0.75620    0    0    0
      37        1        2  0.08000000   -4.27500   -0.59070    0.97860    0    0    0
      38        1        2  0.08000000   -5.39030    1.59810    0.57500    0    0    0
      39        1        2  0.08000000   -5.48560    1.22850   -1.15840    0    0    0
      40        1        2  0.08000000   -6.87510   -0.78170   -0.64110    0    0    0
      41        1        2  0.08000000   -6.80370   -0.37530    1.08570    0    0    0
      42        1        2  0.08000000   -7.92100    1.80090    0.61510    0    0    0
      43        1        2  0.08000000   -7.98900    1.38930   -1.11070    0    0    0
      44        1        2  0.08000000   -9.37530   -0.61500   -0.56600    0    0    0
      45        1        2  0.08000000   -9.32870   -0.16980    1.15130    0    0    0
      46        1        2  0.08000000  -10.45180    1.98870    0.61870    0    0    0
      47        1        2  0.08000000  -10.49780    1.53730   -1.09890    0    0    0
      48        1        2  0.08000000  -11.88800   -0.45750   -0.53020    0    0    0
      49        1        2  0.08000000  -11.85380    0.01100    1.17980    0    0    0
      50        1        2  0.08000000  -13.00140    2.14300    0.62070    0    0    0
      51        1        2  0.08000000  -13.03660    1.66710   -1.09690    0    0    0
      52        1        7  0.18000000  -15.41050    1.30890   -0.03200    0    0    0
      53        1        2  0.15000000    0.08730   -2.21000   -0.02290    0    0    0
      54        1        2  0.15000000    2.34960   -3.12990   -0.10380    0    0    0
      55        1        2  0.15000000    4.83210    0.01410    1.44860    0    0    0
      56        1        2  0.15000000    6.79740    1.30850    2.10110    0    0    0


Bonds

       1        1        1        2 
       2        2        1        3 
       3        2        1       27 
       4        2        3        4 
       5        1        3       28 
       6        2        4        5 
       7        1        4       29 
       8        2        5        6 
       9        2        5       26 
      10        3        6        7 
      11        2        6        8 
      12        2        8        9 
      13        2        8       25 
      14        2        9       10 
      15        1        9       30 
      16        2       10       11 
      17        1       10       31 
      18        4       11       12 
      19        2       11       24 
      20        5       12       13 
      21        6       13       14 
      22        7       13       32 
      23        7       13       33 
      24        6       14       15 
      25        7       14       34 
      26        7       14       35 
      27        6       15       16 
      28        7       15       36 
      29        7       15       37 
      30        6       16       17 
      31        7       16       38 
      32        7       16       39 
      33        6       17       18 
      34        7       17       40 
      35        7       17       41 
      36        6       18       19 
      37        7       18       42 
      38        7       18       43 
      39        6       19       20 
      40        7       19       44 
      41        7       19       45 
      42        6       20       21 
      43        7       20       46 
      44        7       20       47 
      45        6       21       22 
      46        7       21       48 
      47        7       21       49 
      48        8       22       23 
      49        7       22       50 
      50        7       22       51 
      51        9       23       52 
      52        2       24       25 
      53        1       24       53 
      54        1       25       54 
      55        2       26       27 
      56        1       26       55 
      57        1       27       56 

Angles

       1        1        3        1        2 
       2        1        3        1       27 
       3        1        3        4       29 
       4        1        4        3        1 
       5        1        4        3       28 
       6        1        4        5       26 
       7        1        5        4        3 
       8        1        5        4       29 
       9        1        5       26       27 
      10        1        6        5        4 
      11        1        6        5       26 
      12        1        6        8       25 
      13        1        7        6        5 
      14        1        8        6        5 
      15        1        8        6        7 
      16        1        8        9       10 
      17        1        8        9       30 
      18        1        8       25       24 
      19        1        8       25       54 
      20        1        9        8        6 
      21        1        9        8       25 
      22        1        9       10       11 
      23        1        9       10       31 
      24        1       12       11       10 
      25        2       13       12       11 
      26        3       14       13       12 
      27        3       15       14       13 
      28        3       16       15       14 
      29        3       17       16       15 
      30        3       18       17       16 
      31        3       19       18       17 
      32        3       20       19       18 
      33        3       21       20       19 
      34        3       22       21       20 
      35        3       23       22       21 
      36        1       24       11       10 
      37        1       24       11       12 
      38        1       25       24       11 
      39        1       26       27        1 
      40        1       27        1        2 
      41        1       28        3        1 
      42        1       30        9       10 
      43        1       31       10       11 
      44        3       32       13       12 
      45        3       32       13       14 
      46        3       33       13       12 
      47        3       33       13       14 
      48        3       33       13       32 
      49        3       34       14       13 
      50        3       34       14       15 
      51        3       35       14       13 
      52        3       35       14       15 
      53        3       35       14       34 
      54        3       36       15       14 
      55        3       36       15       16 
      56        3       37       15       14 
      57        3       37       15       16 
      58        3       37       15       36 
      59        3       38       16       15 
      60        3       38       16       17 
      61        3       39       16       15 
      62        3       39       16       17 
      63        3       39       16       38 
      64        3       40       17       16 
      65        3       40       17       18 
      66        3       41       17       16 
      67        3       41       17       18 
      68        3       41       17       40 
      69        3       42       18       17 
      70        3       42       18       19 
      71        3       43       18       17 
      72        3       43       18       19 
      73        3       43       18       42 
      74        3       44       19       18 
      75        3       44       19       20 
      76        3       45       19       18 
      77        3       45       19       20 
      78        3       45       19       44 
      79        3       46       20       19 
      80        3       46       20       21 
      81        3       47       20       19 
      82        3       47       20       21 
      83        3       47       20       46 
      84        3       48       21       20 
      85        3       48       21       22 
      86        3       49       21       20 
      87        3       49       21       22 
      88        3       49       21       48 
      89        3       50       22       21 
      90        3       50       22       23 
      91        3       51       22       21 
      92        3       51       22       23 
      93        3       51       22       50 
      94        4       52       23       22 
      95        1       53       24       11 
      96        1       53       24       25 
      97        1       54       25       24 
      98        1       55       26        5 
      99        1       55       26       27 
     100        1       56       27        1 
     101        1       56       27       26 

Dihedrals

       1        3        3        1       27       26 
       2        3        3        4        5       26 
       3        3        4        3        1        2 
       4        3        4        3        1       27 
       5        3        4        5       26       27 
       6        3        5        4        3        1 
       7        3        5        4        3       28 
       8        3        5        6        8       25 
       9        3        5       26       27        1 
      10        3        6        5        4        3 
      11        3        6        5        4       29 
      12        3        6        5       26       27 
      13        3        6        5       26       55 
      14        3        6        8        9       10 
      15        3        6        8        9       30 
      16        3        6        8       25       24 
      17        3        6        8       25       54 
      18        3        7        6        5        4 
      19        3        7        6        5       26 
      20        3        7        6        8       25 
      21        3        8        6        5        4 
      22        3        8        6        5       26 
      23        3        8        9       10       11 
      24        3        8        9       10       31 
      25        3        8       25       24       11 
      26        3        8       25       24       53 
      27        3        9        8        6        5 
      28        3        9        8        6        7 
      29        3        9        8       25       24 
      30        3        9        8       25       54 
      31        3        9       10       11       12 
      32        3        9       10       11       24 
      33        4       13       12       11       10 
      34        1       14       13       12       11 
      35        2       15       14       13       12 
      36        2       16       15       14       13 
      37        2       17       16       15       14 
      38        2       18       17       16       15 
      39        2       19       18       17       16 
      40        2       20       19       18       17 
      41        2       21       20       19       18 
      42        2       22       21       20       19 
      43        2       23       22       21       20 
      44        4       24       11       12       13 
      45        3       25        8        9       10 
      46        3       25       24       11       10 
      47        3       25       24       11       12 
      48        3       26       27        1        2 
      49        3       28        3        1        2 
      50        3       28        3        1       27 
      51        3       29        4        3        1 
      52        3       29        4        3       28 
      53        3       29        4        5       26 
      54        3       30        9        8       25 
      55        3       30        9       10       11 
      56        3       31       10        9       30 
      57        3       31       10       11       12 
      58        3       31       10       11       24 
      59        1       32       13       12       11 
      60        2       32       13       14       15 
      61        1       33       13       12       11 
      62        2       33       13       14       15 
      63        2       34       14       13       12 
      64        2       34       14       13       32 
      65        2       34       14       13       33 
      66        2       34       14       15       16 
      67        2       35       14       13       12 
      68        2       35       14       13       32 
      69        2       35       14       13       33 
      70        2       35       14       15       16 
      71        2       36       15       14       13 
      72        2       36       15       14       34 
      73        2       36       15       14       35 
      74        2       36       15       16       17 
      75        2       37       15       14       13 
      76        2       37       15       14       34 
      77        2       37       15       14       35 
      78        2       37       15       16       17 
      79        2       38       16       15       14 
      80        2       38       16       15       36 
      81        2       38       16       15       37 
      82        2       38       16       17       18 
      83        2       39       16       15       14 
      84        2       39       16       15       36 
      85        2       39       16       15       37 
      86        2       39       16       17       18 
      87        2       40       17       16       15 
      88        2       40       17       16       38 
      89        2       40       17       16       39 
      90        2       40       17       18       19 
      91        2       41       17       16       15 
      92        2       41       17       16       38 
      93        2       41       17       16       39 
      94        2       41       17       18       19 
      95        2       42       18       17       16 
      96        2       42       18       17       40 
      97        2       42       18       17       41 
      98        2       42       18       19       20 
      99        2       43       18       17       16 
     100        2       43       18       17       40 
     101        2       43       18       17       41 
     102        2       43       18       19       20 
     103        2       44       19       18       17 
     104        2       44       19       18       42 
     105        2       44       19       18       43 
     106        2       44       19       20       21 
     107        2       45       19       18       17 
     108        2       45       19       18       42 
     109        2       45       19       18       43 
     110        2       45       19       20       21 
     111        2       46       20       19       18 
     112        2       46       20       19       44 
     113        2       46       20       19       45 
     114        2       46       20       21       22 
     115        2       47       20       19       18 
     116        2       47       20       19       44 
     117        2       47       20       19       45 
     118        2       47       20       21       22 
     119        2       48       21       20       19 
     120        2       48       21       20       46 
     121        2       48       21       20       47 
     122        2       48       21       22       23 
     123        2       49       21       20       19 
     124        2       49       21       20       46 
     125        2       49       21       20       47 
     126        2       49       21       22       23 
     127        2       50       22       21       20 
     128        2       50       22       21       48 
     129        2       50       22       21       49 
     130        2       51       22       21       20 
     131        2       51       22       21       48 
     132        2       51       22       21       49 
     133        5       52       23       22       21 
     134        5       52       23       22       50 
     135        5       52       23       22       51 
     136        3       53       24       11       10 
     137        3       53       24       11       12 
     138        3       54       25       24       11 
     139        3       54       25       24       53 
     140        3       55       26        5        4 
     141        3       55       26       27        1 
     142        3       56       27        1        2 
     143        3       56       27        1        3 
     144        3       56       27       26        5 
     145        3       56       27       26       55 

Impropers

       1        1        1        2        3       27 
       2        1        1       27        2        3 
       3        1        1        3       27        2 
       4        1        3        1        4       28 
       5        1        3       28        1        4 
       6        1        3        4       28        1 
       7        1        4        3        5       29 
       8        1        4       29        3        5 
       9        1        4        5       29        3 
      10        1        5        4        6       26 
      11        1        5       26        4        6 
      12        1        5        6       26        4 
      13        1        6        5        7        8 
      14        1        6        8        5        7 
      15        1        6        7        8        5 
      16        1        8        6        9       25 
      17        1        8       25        6        9 
      18        1        8        9       25        6 
      19        1        9        8       10       30 
      20        1        9       30        8       10 
      21        1        9       10       30        8 
      22        1       10        9       11       31 
      23        1       10       31        9       11 
      24        1       10       11       31        9 
      25        1       11       10       12       24 
      26        1       11       24       10       12 
      27        1       11       12       24       10 
      28        1       24       11       25       53 
      29        1       24       53       11       25 
      30        1       24       25       53       11 
      31        1       25        8       24       54 
      32        1       25       54        8       24 
      33        1       25       24       54        8 
      34        1       26        5       27       55 
      35        1       26       55        5       27 
      36        1       26       27       55        5 
      37        1       27        1       26       56 
      38        1       27       56        1       26 
      39        1       27       26       56        1 
