Created by /home/rramji/scripts/createLammpsInput.pl on Tue May 16 16:51:51 2023

          20 atoms
           0 bonds
           0 angles
           0 dihedrals
           0 impropers

           2 atom types
           0 bond types
           0 angle types
           0 dihedral types
           0 improper types

		   0.000000   6.675190 xlo xhi
		   0.000000   5.780880 ylo yhi
		   0.000000   17.191041 zlo zhi

Masses

    1 6.5377E+01 # Zn     
    2 3.2060E+01 # S_3    

Pair Coeffs

    1    0.05500    4.04468 # Zn Zn 
    2    0.34400    3.59032 # S_3 S_3 

Atoms

       1        1        1  2.00000000    0.00000    0.00000    0.00000    0    0    0
       2        2        1  2.00000000    0.00000    0.00000    9.44014    0    0    0
       3        3        1  2.00000000    2.22506    0.00000    3.14671    0    0    0
       4        4        1  2.00000000    2.22506    0.00000   12.58686    0    0    0
       5        5        1  2.00000000    4.45013    0.00000    6.29343    0    0    0
       6        6        1  2.00000000    5.56266    1.92696    3.14671    0    0    0
       7        7        1  2.00000000    5.56266    1.92696   12.58686    0    0    0
       8        8        1  2.00000000    1.11253    1.92696    6.29343    0    0    0
       9        9        1  2.00000000    3.33759    1.92696    0.00000    0    0    0
      10       10        1  2.00000000    3.33759    1.92696    9.44014    0    0    0
      11       11        2 -2.00000000    4.45013    0.00000    3.93339    0    0    0
      12       12        2 -2.00000000    4.45013    0.00000   13.37354    0    0    0
      13       13        2 -2.00000000    0.00000    0.00000    7.08011    0    0    0
      14       14        2 -2.00000000    2.22506    0.00000    0.78668    0    0    0
      15       15        2 -2.00000000    2.22506    0.00000   10.22682    0    0    0
      16       16        2 -2.00000000    1.11253    1.92696    3.93339    0    0    0
      17       17        2 -2.00000000    1.11253    1.92696   13.37354    0    0    0
      18       18        2 -2.00000000    3.33759    1.92696    7.08011    0    0    0
      19       19        2 -2.00000000    5.56266    1.92696    0.78668    0    0    0
      20       20        2 -2.00000000    5.56266    1.92696   10.22682    0    0    0

