ITEM: TIMESTEP
0
ITEM: NUMBER OF ATOMS
432
ITEM: BOX BOUNDS pp pp pp
0.0000000000000000e+00 4.5735666607145887e+01
0.0000000000000000e+00 3.2339999999999996e+01
0.0000000000000000e+00 1.9056527752977455e+01
ITEM: ATOMS id type xu yu zu vx vy vz
3 1 4.06537 0.152387 4.00209 0 -0 0
4 2 5.79863 1.75277 3.93832 0 -0 -0
12 2 4.75497 1.24131 19.0877 0 0 -0
13 1 0.666667 4.91841 1.56825 -0 -0 -0
15 1 4.06537 5.54239 4.00209 0 0 0
16 2 5.79863 7.14277 3.93832 0 0 -0
24 2 4.75497 6.63131 19.0877 -0 0 -0
85 1 8.28927 4.91839 1.56825 0 0 0
25 1 0.666667 10.3084 1.56825 0 0 0
27 1 4.06537 10.9324 4.00209 0 -0 0
28 2 5.79863 12.5328 3.93832 0 0 -0
36 2 4.75497 12.0213 19.0877 -0 0 -0
97 1 8.28927 10.3084 1.56825 -0 -0 0
37 1 0.666667 15.6984 1.56825 0 -0 -0
109 1 8.28927 15.6984 1.56825 0 0 0
91 1 11.4101 5.38417 11.5025 0 -0 0
6 2 1.8891 1.37347 7.46348 -0 -0 -0
8 2 5.70041 1.37348 11.593 0 0 -0
17 1 7.59876 5.38416 7.55405 -0 0 0
18 2 1.8891 6.76347 7.46348 0 0 -0
19 1 3.78746 5.38417 11.5025 0 -0 0
20 2 5.70041 6.76348 11.593 -0 -0 0
78 2 9.51171 1.37347 7.46348 -0 0 0
90 2 9.51171 6.76347 7.46348 -0 0 0
103 1 11.4101 10.7742 11.5025 -0 -0 0
43 1 3.78746 16.1642 11.5025 -0 0 0
41 1 7.59876 16.1642 7.55405 -0 0 -0
115 1 11.4101 16.1642 11.5025 0 -0 -0
29 1 7.59876 10.7742 7.55405 0 -0 0
30 2 1.8891 12.1535 7.46348 0 -0 -0
31 1 3.78746 10.7742 11.5025 0 0 -0
32 2 5.70041 12.1535 11.593 0 0 0
102 2 9.51171 12.1535 7.46348 0 -0 0
2 2 0.94366 1.24129 -0.0311218 0 0 0
14 2 0.94366 6.63129 -0.0311218 0 0 -0
23 1 4.47798 4.91842 17.4883 -0 -0 -0
74 2 8.56627 1.24128 -0.0311232 0 0 -0
86 2 8.56627 6.63128 -0.0311232 -0 -0 -0
9 1 7.87667 0.152385 15.0544 0 -0 0
10 2 1.98732 1.75277 15.1182 0 -0 -0
21 1 7.87667 5.54238 15.0544 0 -0 -0
22 2 1.98732 7.14277 15.1182 0 0 -0
82 2 9.60993 1.75277 15.1182 -0 0 0
94 2 9.60993 7.14277 15.1182 0 0 0
381 1 0.254053 5.54239 15.0544 -0 -0 -0
369 1 0.254053 0.152385 15.0544 0 -0 0
26 2 0.94366 12.0213 -0.0311218 0 0 0
35 1 4.47798 10.3084 17.4883 -0 -0 -0
98 2 8.56627 12.0213 -0.0311232 -0 -0 -0
106 2 9.60993 12.5328 15.1182 0 0 -0
34 2 1.98732 12.5328 15.1182 -0 0 -0
33 1 7.87667 10.9324 15.0544 0 -0 -0
47 1 4.47798 15.6984 17.4883 0 0 0
393 1 0.254053 10.9324 15.0544 0 -0 -0
39 1 4.06537 16.3224 4.00209 -0 0 -0
40 2 5.79863 17.9228 3.93832 0 -0 0
48 2 4.75497 17.4113 19.0877 0 -0 -0
49 1 0.666667 21.0884 1.56825 -0 0 -0
51 1 4.06537 21.7124 4.00209 -0 -0 0
52 2 5.79863 23.3128 3.93832 -0 0 -0
60 2 4.75497 22.8013 19.0877 0 0 -0
121 1 8.28927 21.0884 1.56825 -0 0 -0
61 1 0.666667 26.4784 1.56825 0 -0 -0
63 1 4.06537 27.1024 4.00209 0 0 -0
64 2 5.79863 28.7028 3.93832 -0 0 -0
72 2 4.75497 28.1913 19.0877 0 -0 0
133 1 8.28927 26.4784 1.56825 0 -0 0
1 1 0.666667 -0.471594 1.56825 0 -0 -0
73 1 8.28927 -0.471606 1.56825 -0 -0 0
127 1 11.4101 21.5542 11.5025 0 0 0
42 2 1.8891 17.5435 7.46348 -0 -0 -0
44 2 5.70041 17.5435 11.593 0 -0 0
53 1 7.59876 21.5542 7.55405 0 0 0
54 2 1.8891 22.9335 7.46348 0 0 0
55 1 3.78746 21.5542 11.5025 -0 -0 0
56 2 5.70041 22.9335 11.593 0 0 0
114 2 9.51171 17.5435 7.46348 0 0 -0
126 2 9.51171 22.9335 7.46348 -0 0 0
139 1 11.4101 26.9442 11.5025 0 -0 -0
7 1 3.78746 -0.00583352 11.5025 -0 0 -0
5 1 7.59876 -0.00583852 7.55405 0 -0 -0
79 1 11.4101 -0.00583368 11.5025 -0 0 -0
65 1 7.59876 26.9442 7.55405 0 0 0
66 2 1.8891 28.3235 7.46348 0 -0 -0
67 1 3.78746 26.9442 11.5025 0 -0 0
68 2 5.70041 28.3235 11.593 -0 -0 -0
138 2 9.51171 28.3235 7.46348 0 -0 0
38 2 0.94366 17.4113 -0.0311218 -0 0 -0
50 2 0.94366 22.8013 -0.0311218 -0 -0 -0
59 1 4.47798 21.0884 17.4883 0 -0 0
110 2 8.56627 17.4113 -0.0311232 -0 -0 -0
122 2 8.56627 22.8013 -0.0311232 -0 0 -0
45 1 7.87667 16.3224 15.0544 -0 0 -0
46 2 1.98732 17.9228 15.1182 -0 0 0
57 1 7.87667 21.7124 15.0544 0 0 -0
58 2 1.98732 23.3128 15.1182 0 0 -0
118 2 9.60993 17.9228 15.1182 -0 0 0
130 2 9.60993 23.3128 15.1182 -0 -0 0
417 1 0.254053 21.7124 15.0544 0 0 -0
405 1 0.254053 16.3224 15.0544 -0 0 -0
62 2 0.94366 28.1913 -0.0311218 -0 -0 -0
71 1 4.47798 26.4784 17.4883 0 -0 0
134 2 8.56627 28.1913 -0.0311232 0 -0 0
142 2 9.60993 28.7028 15.1182 -0 0 0
70 2 1.98732 28.7028 15.1182 0 0 -0
69 1 7.87667 27.1024 15.0544 -0 0 -0
11 1 4.47798 -0.471577 17.4883 0 0 -0
429 1 0.254053 27.1024 15.0544 0 -0 0
76 2 13.4212 1.75277 3.93832 0 0 0
84 2 12.3776 1.24131 19.0877 -0 -0 0
88 2 13.4212 7.14277 3.93832 0 -0 -0
96 2 12.3776 6.63131 19.0877 -0 0 0
147 1 19.3106 0.152386 4.00208 0 -0 0
148 2 21.0438 1.75277 3.93832 0 0 0
156 2 20.0002 1.24131 19.0877 0 0 -0
157 1 15.9119 4.91839 1.56825 0 0 -0
159 1 19.3106 5.54239 4.00208 -0 0 -0
160 2 21.0438 7.14277 3.93832 0 -0 0
168 2 20.0002 6.63131 19.0877 -0 -0 0
87 1 11.688 5.54239 4.00208 -0 0 0
75 1 11.688 0.152387 4.00208 -0 0 -0
100 2 13.4212 12.5328 3.93832 -0 -0 -0
108 2 12.3776 12.0213 19.0877 -0 -0 0
169 1 15.9119 10.3084 1.56825 0 0 -0
171 1 19.3106 10.9324 4.00208 0 0 -0
172 2 21.0438 12.5328 3.93832 -0 -0 -0
180 2 20.0002 12.0213 19.0877 -0 -0 -0
181 1 15.9119 15.6984 1.56825 0 -0 0
99 1 11.688 10.9324 4.00208 -0 -0 -0
80 2 13.323 1.37348 11.593 0 0 0
89 1 15.2214 5.38416 7.55405 0 -0 -0
92 2 13.323 6.76348 11.593 0 -0 -0
150 2 17.1343 1.37347 7.46348 -0 -0 0
152 2 20.9456 1.37347 11.593 0 0 0
161 1 22.844 5.38416 7.55405 -0 0 0
162 2 17.1343 6.76347 7.46348 -0 -0 -0
163 1 19.0327 5.38417 11.5025 -0 -0 0
164 2 20.9456 6.76347 11.593 -0 0 -0
176 2 20.9456 12.1535 11.593 -0 -0 0
187 1 19.0327 16.1642 11.5025 -0 0 -0
175 1 19.0327 10.7742 11.5025 0 -0 0
174 2 17.1343 12.1535 7.46348 0 0 0
185 1 22.844 16.1642 7.55405 -0 0 -0
173 1 22.844 10.7742 7.55405 0 0 0
113 1 15.2214 16.1642 7.55405 -0 -0 0
104 2 13.323 12.1535 11.593 0 0 0
101 1 15.2214 10.7742 7.55405 0 0 -0
95 1 12.1006 4.91842 17.4883 -0 0 -0
146 2 16.1889 1.24128 -0.0311234 0 -0 -0
158 2 16.1889 6.63128 -0.0311234 -0 0 0
167 1 19.7232 4.91842 17.4883 0 -0 0
166 2 17.2325 7.14277 15.1182 0 -0 -0
154 2 17.2325 1.75277 15.1182 -0 0 -0
93 1 15.4993 5.54238 15.0544 -0 -0 0
81 1 15.4993 0.152385 15.0544 -0 -0 0
178 2 17.2325 12.5328 15.1182 -0 -0 -0
105 1 15.4993 10.9324 15.0544 -0 0 -0
107 1 12.1006 10.3084 17.4883 -0 -0 0
170 2 16.1889 12.0213 -0.0311234 -0 0 0
179 1 19.7232 10.3084 17.4883 0 0 0
119 1 12.1006 15.6984 17.4883 -0 0 -0
191 1 19.7232 15.6984 17.4883 0 0 0
112 2 13.4212 17.9228 3.93832 -0 0 -0
120 2 12.3776 17.4113 19.0877 0 -0 0
124 2 13.4212 23.3128 3.93832 -0 0 -0
132 2 12.3776 22.8013 19.0877 -0 -0 0
183 1 19.3106 16.3224 4.00208 0 -0 0
184 2 21.0438 17.9228 3.93832 -0 -0 0
192 2 20.0002 17.4113 19.0877 -0 -0 -0
193 1 15.9119 21.0884 1.56825 0 -0 0
195 1 19.3106 21.7124 4.00208 -0 -0 -0
196 2 21.0438 23.3128 3.93832 -0 0 0
204 2 20.0002 22.8013 19.0877 0 0 -0
123 1 11.688 21.7124 4.00208 -0 0 0
111 1 11.688 16.3224 4.00208 -0 -0 0
136 2 13.4212 28.7028 3.93832 0 0 -0
144 2 12.3776 28.1913 19.0877 -0 -0 -0
205 1 15.9119 26.4784 1.56825 0 -0 0
207 1 19.3106 27.1024 4.00208 0 -0 0
208 2 21.0438 28.7028 3.93832 0 0 -0
216 2 20.0002 28.1913 19.0877 -0 -0 0
145 1 15.9119 -0.471608 1.56825 -0 0 -0
135 1 11.688 27.1024 4.00208 -0 -0 0
116 2 13.323 17.5435 11.593 -0 0 -0
125 1 15.2214 21.5542 7.55405 0 -0 -0
128 2 13.323 22.9335 11.593 0 0 0
186 2 17.1343 17.5435 7.46348 0 0 -0
188 2 20.9456 17.5435 11.593 -0 0 -0
197 1 22.844 21.5542 7.55405 -0 0 0
198 2 17.1343 22.9335 7.46348 -0 0 -0
199 1 19.0327 21.5542 11.5025 0 0 0
200 2 20.9456 22.9335 11.593 0 -0 0
212 2 20.9456 28.3235 11.593 -0 -0 -0
151 1 19.0327 -0.00583439 11.5025 0 -0 0
211 1 19.0327 26.9442 11.5025 -0 -0 -0
210 2 17.1343 28.3235 7.46348 -0 0 0
149 1 22.844 -0.00583555 7.55405 -0 0 -0
209 1 22.844 26.9442 7.55405 -0 -0 0
77 1 15.2214 -0.00583824 7.55405 0 0 0
140 2 13.323 28.3235 11.593 -0 0 -0
137 1 15.2214 26.9442 7.55405 0 0 0
131 1 12.1006 21.0884 17.4883 -0 -0 0
182 2 16.1889 17.4113 -0.0311234 0 -0 -0
194 2 16.1889 22.8013 -0.0311234 -0 -0 -0
203 1 19.7232 21.0884 17.4883 -0 0 0
202 2 17.2325 23.3128 15.1182 0 0 -0
190 2 17.2325 17.9228 15.1182 -0 0 -0
129 1 15.4993 21.7124 15.0544 0 0 -0
117 1 15.4993 16.3224 15.0544 -0 -0 0
214 2 17.2325 28.7028 15.1182 -0 0 0
141 1 15.4993 27.1024 15.0544 -0 -0 0
143 1 12.1006 26.4784 17.4883 0 -0 -0
206 2 16.1889 28.1913 -0.0311234 -0 0 0
215 1 19.7232 26.4784 17.4883 0 -0 -0
83 1 12.1006 -0.471576 17.4883 -0 -0 -0
155 1 19.7232 -0.471578 17.4883 0 -0 0
219 1 26.9332 0.152385 4.00209 -0 -0 0
220 2 28.6665 1.75277 3.93832 -0 -0 0
228 2 27.6228 1.2413 19.0877 0 -0 0
231 1 26.9332 5.54239 4.00209 0 -0 0
232 2 28.6665 7.14277 3.93832 -0 -0 -0
240 2 27.6228 6.6313 19.0877 -0 -0 -0
229 1 23.5345 4.91841 1.56825 0 0 -0
301 1 31.1571 4.91841 1.56825 -0 0 -0
241 1 23.5345 10.3084 1.56825 0 -0 -0
243 1 26.9332 10.9324 4.00209 0 -0 0
244 2 28.6665 12.5328 3.93832 0 -0 -0
252 2 27.6228 12.0213 19.0877 0 -0 0
313 1 31.1571 10.3084 1.56825 -0 0 0
253 1 23.5345 15.6984 1.56825 0 -0 0
325 1 31.1571 15.6984 1.56825 -0 -0 -0
222 2 24.7569 1.37347 7.46349 -0 0 0
307 1 34.2779 5.38416 11.5025 0 -0 -0
224 2 28.5682 1.37347 11.593 -0 0 -0
233 1 30.4666 5.38416 7.55405 -0 0 0
234 2 24.7569 6.76347 7.46349 -0 0 -0
235 1 26.6553 5.38416 11.5025 -0 0 -0
236 2 28.5682 6.76347 11.593 0 -0 -0
294 2 32.3795 1.37347 7.46349 0 -0 -0
306 2 32.3795 6.76347 7.46349 0 0 0
319 1 34.2779 10.7742 11.5025 -0 -0 -0
245 1 30.4666 10.7742 7.55405 -0 -0 0
246 2 24.7569 12.1535 7.46349 -0 -0 -0
247 1 26.6553 10.7742 11.5025 0 -0 0
248 2 28.5682 12.1535 11.593 -0 0 0
318 2 32.3795 12.1535 7.46349 0 -0 -0
331 1 34.2779 16.1642 11.5025 -0 -0 -0
259 1 26.6553 16.1642 11.5025 -0 -0 -0
257 1 30.4666 16.1642 7.55405 -0 -0 -0
218 2 23.8115 1.24129 -0.0311263 0 0 -0
230 2 23.8115 6.63129 -0.0311263 0 0 0
239 1 27.3458 4.91841 17.4883 -0 -0 0
290 2 31.4341 1.24129 -0.0311239 -0 0 0
302 2 31.4341 6.63129 -0.0311239 -0 -0 0
225 1 30.7445 0.152387 15.0544 -0 -0 -0
226 2 24.8552 1.75277 15.1182 -0 0 -0
237 1 30.7445 5.54239 15.0544 -0 0 -0
238 2 24.8552 7.14277 15.1182 -0 0 -0
298 2 32.4778 1.75277 15.1182 0 0 -0
310 2 32.4778 7.14277 15.1182 0 0 -0
165 1 23.1219 5.54239 15.0544 0 -0 0
153 1 23.1219 0.152386 15.0544 0 0 0
242 2 23.8115 12.0213 -0.0311263 0 0 -0
251 1 27.3458 10.3084 17.4883 0 0 -0
314 2 31.4341 12.0213 -0.0311239 -0 -0 -0
249 1 30.7445 10.9324 15.0544 -0 -0 -0
250 2 24.8552 12.5328 15.1182 -0 -0 0
322 2 32.4778 12.5328 15.1182 -0 0 -0
263 1 27.3458 15.6984 17.4883 -0 0 -0
177 1 23.1219 10.9324 15.0544 0 0 0
255 1 26.9332 16.3224 4.00209 -0 0 -0
256 2 28.6665 17.9228 3.93832 -0 0 0
264 2 27.6228 17.4113 19.0877 -0 0 0
267 1 26.9332 21.7124 4.00209 0 0 0
268 2 28.6665 23.3128 3.93832 0 -0 -0
276 2 27.6228 22.8013 19.0877 0 0 0
265 1 23.5345 21.0884 1.56825 0 -0 0
337 1 31.1571 21.0884 1.56825 0 0 -0
277 1 23.5345 26.4784 1.56825 0 -0 -0
279 1 26.9332 27.1024 4.00209 -0 0 -0
280 2 28.6665 28.7028 3.93832 0 -0 -0
288 2 27.6228 28.1913 19.0877 -0 -0 -0
349 1 31.1571 26.4784 1.56825 -0 0 -0
217 1 23.5345 -0.471594 1.56825 0 0 -0
289 1 31.1571 -0.471592 1.56825 0 -0 0
258 2 24.7569 17.5435 7.46349 0 -0 -0
343 1 34.2779 21.5542 11.5025 0 -0 0
260 2 28.5682 17.5435 11.593 -0 -0 0
269 1 30.4666 21.5542 7.55405 0 0 0
270 2 24.7569 22.9335 7.46349 0 0 0
271 1 26.6553 21.5542 11.5025 0 0 0
272 2 28.5682 22.9335 11.593 0 0 0
330 2 32.3795 17.5435 7.46349 0 -0 -0
342 2 32.3795 22.9335 7.46349 0 -0 0
355 1 34.2779 26.9442 11.5025 -0 0 0
281 1 30.4666 26.9442 7.55405 -0 0 -0
282 2 24.7569 28.3235 7.46349 -0 0 -0
283 1 26.6553 26.9442 11.5025 0 -0 0
284 2 28.5682 28.3235 11.593 -0 -0 -0
354 2 32.3795 28.3235 7.46349 -0 -0 0
295 1 34.2779 -0.00583647 11.5025 -0 0 -0
223 1 26.6553 -0.00583662 11.5025 0 -0 -0
221 1 30.4666 -0.00583565 7.55405 -0 -0 0
254 2 23.8115 17.4113 -0.0311263 -0 0 0
266 2 23.8115 22.8013 -0.0311263 0 0 -0
275 1 27.3458 21.0884 17.4883 0 -0 0
326 2 31.4341 17.4113 -0.0311239 -0 -0 0
338 2 31.4341 22.8013 -0.0311239 0 0 0
261 1 30.7445 16.3224 15.0544 -0 0 0
262 2 24.8552 17.9228 15.1182 0 -0 0
273 1 30.7445 21.7124 15.0544 -0 -0 0
274 2 24.8552 23.3128 15.1182 0 0 -0
334 2 32.4778 17.9228 15.1182 0 0 0
346 2 32.4778 23.3128 15.1182 0 -0 0
201 1 23.1219 21.7124 15.0544 0 -0 0
189 1 23.1219 16.3224 15.0544 -0 0 0
278 2 23.8115 28.1913 -0.0311263 -0 0 -0
287 1 27.3458 26.4784 17.4883 0 0 -0
350 2 31.4341 28.1913 -0.0311239 -0 0 -0
285 1 30.7445 27.1024 15.0544 -0 -0 0
286 2 24.8552 28.7028 15.1182 0 -0 -0
358 2 32.4778 28.7028 15.1182 -0 0 0
227 1 27.3458 -0.471589 17.4883 0 -0 -0
213 1 23.1219 27.1024 15.0544 0 -0 -0
292 2 36.2891 1.75277 3.93832 -0 0 -0
300 2 35.2454 1.24128 19.0877 0 -0 0
304 2 36.2891 7.14277 3.93832 -0 -0 0
312 2 35.2454 6.63128 19.0877 0 0 -0
363 1 42.1784 0.152385 4.00209 -0 -0 -0
364 2 43.9117 1.75277 3.93832 -0 -0 0
372 2 42.868 1.24128 19.0877 -0 -0 -0
373 1 38.7797 4.91842 1.56825 -0 0 0
375 1 42.1784 5.54239 4.00209 -0 -0 0
376 2 43.9117 7.14277 3.93832 0 -0 -0
384 2 42.868 6.63128 19.0877 0 -0 0
291 1 34.5558 0.152385 4.00209 -0 -0 -0
303 1 34.5558 5.54239 4.00209 0 -0 -0
316 2 36.2891 12.5328 3.93832 -0 0 0
324 2 35.2454 12.0213 19.0877 0 -0 -0
385 1 38.7797 10.3084 1.56825 0 0 -0
387 1 42.1784 10.9324 4.00209 -0 -0 -0
388 2 43.9117 12.5328 3.93832 0 -0 0
396 2 42.868 12.0213 19.0877 0 0 -0
397 1 38.7797 15.6984 1.56825 0 0 0
315 1 34.5558 10.9324 4.00209 0 0 -0
377 1 -0.0238518 5.38416 7.55405 0 -0 -0
296 2 36.1909 1.37347 11.593 -0 0 0
305 1 38.0892 5.38417 7.55405 0 -0 -0
308 2 36.1909 6.76347 11.593 0 0 0
366 2 40.0022 1.37348 7.46349 -0 -0 0
368 2 43.8135 1.37347 11.593 -0 -0 -0
378 2 40.0022 6.76348 7.46349 0 0 -0
379 1 41.9005 5.38416 11.5025 -0 0 -0
380 2 43.8135 6.76347 11.593 -0 -0 0
401 1 -0.0238518 16.1642 7.55405 -0 0 0
403 1 41.9005 16.1642 11.5025 -0 0 0
389 1 -0.0238518 10.7742 7.55405 0 -0 0
329 1 38.0892 16.1642 7.55405 0 0 0
317 1 38.0892 10.7742 7.55405 -0 -0 0
320 2 36.1909 12.1535 11.593 -0 0 0
390 2 40.0022 12.1535 7.46349 0 -0 -0
391 1 41.9005 10.7742 11.5025 0 -0 -0
392 2 43.8135 12.1535 11.593 0 0 0
311 1 34.9684 4.9184 17.4883 0 -0 -0
362 2 39.0567 1.24131 -0.0311271 0 0 -0
374 2 39.0567 6.63131 -0.0311271 0 -0 0
383 1 42.591 4.9184 17.4883 -0 0 -0
382 2 40.1004 7.14277 15.1182 0 0 -0
370 2 40.1004 1.75277 15.1182 0 0 -0
309 1 38.3671 5.54239 15.0544 0 0 -0
297 1 38.3671 0.152387 15.0544 0 0 0
394 2 40.1004 12.5328 15.1182 -0 0 -0
321 1 38.3671 10.9324 15.0544 0 -0 0
323 1 34.9684 10.3084 17.4883 -0 -0 -0
386 2 39.0567 12.0213 -0.0311271 0 -0 -0
395 1 42.591 10.3084 17.4883 -0 0 -0
335 1 34.9684 15.6984 17.4883 -0 0 -0
407 1 42.591 15.6984 17.4883 -0 -0 0
328 2 36.2891 17.9228 3.93832 -0 0 0
336 2 35.2454 17.4113 19.0877 0 0 -0
340 2 36.2891 23.3128 3.93832 0 -0 -0
348 2 35.2454 22.8013 19.0877 0 0 -0
399 1 42.1784 16.3224 4.00209 -0 -0 -0
400 2 43.9117 17.9228 3.93832 -0 -0 0
408 2 42.868 17.4113 19.0877 -0 -0 -0
409 1 38.7797 21.0884 1.56825 -0 0 0
411 1 42.1784 21.7124 4.00209 -0 0 -0
412 2 43.9117 23.3128 3.93832 -0 -0 0
420 2 42.868 22.8013 19.0877 0 0 0
327 1 34.5558 16.3224 4.00209 -0 -0 -0
339 1 34.5558 21.7124 4.00209 0 0 0
352 2 36.2891 28.7028 3.93832 0 0 -0
360 2 35.2454 28.1913 19.0877 0 -0 -0
421 1 38.7797 26.4784 1.56825 -0 -0 0
423 1 42.1784 27.1024 4.00209 -0 0 -0
424 2 43.9117 28.7028 3.93832 0 0 0
432 2 42.868 28.1913 19.0877 -0 0 -0
361 1 38.7797 -0.471576 1.56825 -0 0 0
351 1 34.5558 27.1024 4.00209 0 0 -0
413 1 -0.0238518 21.5542 7.55405 -0 -0 -0
332 2 36.1909 17.5435 11.593 0 0 -0
341 1 38.0892 21.5542 7.55405 -0 -0 0
344 2 36.1909 22.9335 11.593 -0 0 -0
402 2 40.0022 17.5435 7.46349 0 -0 -0
404 2 43.8135 17.5435 11.593 0 -0 0
414 2 40.0022 22.9335 7.46349 0 0 -0
415 1 41.9005 21.5542 11.5025 -0 0 0
416 2 43.8135 22.9335 11.593 -0 0 0
365 1 -0.0238518 -0.00583583 7.55405 -0 0 -0
367 1 41.9005 -0.00583829 11.5025 -0 0 0
425 1 -0.0238518 26.9442 7.55405 -0 0 -0
293 1 38.0892 -0.00583347 7.55405 0 0 -0
353 1 38.0892 26.9442 7.55405 -0 0 -0
356 2 36.1909 28.3235 11.593 0 0 0
426 2 40.0022 28.3235 7.46349 -0 -0 -0
427 1 41.9005 26.9442 11.5025 -0 0 0
428 2 43.8135 28.3235 11.593 -0 -0 -0
347 1 34.9684 21.0884 17.4883 -0 -0 0
398 2 39.0567 17.4113 -0.0311271 0 0 0
410 2 39.0567 22.8013 -0.0311271 -0 -0 0
419 1 42.591 21.0884 17.4883 -0 -0 -0
418 2 40.1004 23.3128 15.1182 0 -0 -0
406 2 40.1004 17.9228 15.1182 -0 0 -0
345 1 38.3671 21.7124 15.0544 0 0 -0
333 1 38.3671 16.3224 15.0544 0 0 0
430 2 40.1004 28.7028 15.1182 0 0 0
357 1 38.3671 27.1024 15.0544 0 -0 0
359 1 34.9684 26.4784 17.4883 -0 0 -0
422 2 39.0567 28.1913 -0.0311271 -0 0 -0
431 1 42.591 26.4784 17.4883 -0 0 -0
299 1 34.9684 -0.4716 17.4883 -0 0 0
371 1 42.591 -0.471603 17.4883 -0 -0 -0
ITEM: TIMESTEP
1000
ITEM: NUMBER OF ATOMS
432
ITEM: BOX BOUNDS pp pp pp
0.0000000000000000e+00 4.5735666607145887e+01
0.0000000000000000e+00 3.2339999999999996e+01
0.0000000000000000e+00 1.9056527752977455e+01
ITEM: ATOMS id type xu yu zu vx vy vz
3 1 4.59436 0.571508 4.40698 0.00104472 0.000662573 0.000571324
4 2 6.28804 1.99044 3.57862 0.000683559 0.000214852 -0.000889077
12 2 3.9766 0.779625 19.1136 8.5064e-05 -0.000180618 -0.000458471
13 1 0.761518 4.49625 1.49643 -0.000207861 -0.000922393 -0.00022555
15 1 4.59436 5.96151 4.40698 0.00104472 0.000662573 0.000571324
16 2 6.28804 7.38044 3.57862 0.000683559 0.000214852 -0.000889077
24 2 3.9766 6.16963 19.1136 8.5064e-05 -0.000180618 -0.000458471
85 1 8.38413 4.4962 1.49644 -0.000207688 -0.000922406 -0.000225565
25 1 0.761518 9.88625 1.49643 -0.000207861 -0.000922393 -0.00022555
27 1 4.59436 11.3515 4.40698 0.00104472 0.000662573 0.000571324
28 2 6.28804 12.7704 3.57862 0.000683559 0.000214852 -0.000889077
36 2 3.9766 11.5596 19.1136 8.5064e-05 -0.000180618 -0.000458471
97 1 8.38413 9.8862 1.49644 -0.000207688 -0.000922406 -0.000225565
37 1 0.761518 15.2762 1.49643 -0.000207861 -0.000922393 -0.00022555
109 1 8.38413 15.2762 1.49644 -0.000207688 -0.000922406 -0.000225565
91 1 11.2085 5.36445 11.6138 -0.000525734 0.000109781 0.000201285
6 2 1.31697 1.64388 6.8073 -0.00140284 0.00027146 -0.00191121
8 2 5.12832 1.6439 12.2492 -0.00140273 0.000271518 0.00191103
17 1 7.39722 5.36444 7.44269 -0.000525722 0.000109774 -0.000201253
18 2 1.31697 7.03388 6.8073 -0.00140284 0.00027146 -0.00191121
19 1 3.58593 5.36445 11.6139 -0.000525737 0.000109781 0.000201309
20 2 5.12832 7.0339 12.2492 -0.00140273 0.000271518 0.00191103
78 2 8.93957 1.64388 6.80729 -0.00140286 0.000271436 -0.0019112
90 2 8.93957 7.03388 6.80729 -0.00140286 0.000271436 -0.0019112
103 1 11.2085 10.7545 11.6138 -0.000525734 0.000109781 0.000201285
43 1 3.58593 16.1445 11.6139 -0.000525737 0.000109781 0.000201309
41 1 7.39722 16.1444 7.44269 -0.000525722 0.000109774 -0.000201253
115 1 11.2085 16.1445 11.6138 -0.000525734 0.000109781 0.000201285
29 1 7.39722 10.7544 7.44269 -0.000525722 0.000109774 -0.000201253
30 2 1.31697 12.4239 6.8073 -0.00140284 0.00027146 -0.00191121
31 1 3.58593 10.7545 11.6139 -0.000525737 0.000109781 0.000201309
32 2 5.12832 12.4239 12.2492 -0.00140273 0.000271518 0.00191103
102 2 8.93957 12.4239 6.80729 -0.00140286 0.000271436 -0.0019112
2 2 0.165292 0.779524 -0.0571054 8.50905e-05 -0.000180772 0.000458383
14 2 0.165292 6.16952 -0.0571054 8.50905e-05 -0.000180772 0.000458383
23 1 4.57276 4.49631 17.5601 -0.000208229 -0.000922299 0.00022551
74 2 7.78792 0.779487 -0.0570974 8.49905e-05 -0.000180699 0.000458488
86 2 7.78792 6.16949 -0.0570974 8.49905e-05 -0.000180699 0.000458488
9 1 8.40566 0.571534 14.6495 0.00104477 0.000662708 -0.00057132
10 2 2.47667 1.99048 15.4779 0.000683444 0.000215069 0.000889112
21 1 8.40566 5.96153 14.6495 0.00104477 0.000662708 -0.00057132
22 2 2.47667 7.38048 15.4779 0.000683444 0.000215069 0.000889112
82 2 10.0993 1.99048 15.4779 0.000683431 0.000215084 0.000889109
94 2 10.0993 7.38048 15.4779 0.000683431 0.000215084 0.000889109
381 1 0.783029 5.96153 14.6496 0.00104475 0.000662681 -0.00057131
369 1 0.783029 0.571528 14.6496 0.00104475 0.000662681 -0.00057131
26 2 0.165292 11.5595 -0.0571054 8.50905e-05 -0.000180772 0.000458383
35 1 4.57276 9.88631 17.5601 -0.000208229 -0.000922299 0.00022551
98 2 7.78792 11.5595 -0.0570974 8.49905e-05 -0.000180699 0.000458488
106 2 10.0993 12.7705 15.4779 0.000683431 0.000215084 0.000889109
34 2 2.47667 12.7705 15.4779 0.000683444 0.000215069 0.000889112
33 1 8.40566 11.3515 14.6495 0.00104477 0.000662708 -0.00057132
47 1 4.57276 15.2763 17.5601 -0.000208229 -0.000922299 0.00022551
393 1 0.783029 11.3515 14.6496 0.00104475 0.000662681 -0.00057131
39 1 4.59436 16.7415 4.40698 0.00104472 0.000662573 0.000571324
40 2 6.28804 18.1604 3.57862 0.000683559 0.000214852 -0.000889077
48 2 3.9766 16.9496 19.1136 8.5064e-05 -0.000180618 -0.000458471
49 1 0.761518 20.6662 1.49643 -0.000207861 -0.000922393 -0.00022555
51 1 4.59436 22.1315 4.40698 0.00104472 0.000662573 0.000571324
52 2 6.28804 23.5504 3.57862 0.000683559 0.000214852 -0.000889077
60 2 3.9766 22.3396 19.1136 8.5064e-05 -0.000180618 -0.000458471
121 1 8.38413 20.6662 1.49644 -0.000207688 -0.000922406 -0.000225565
61 1 0.761518 26.0562 1.49643 -0.000207861 -0.000922393 -0.00022555
63 1 4.59436 27.5215 4.40698 0.00104472 0.000662573 0.000571324
64 2 6.28804 28.9404 3.57862 0.000683559 0.000214852 -0.000889077
72 2 3.9766 27.7296 19.1136 8.5064e-05 -0.000180618 -0.000458471
133 1 8.38413 26.0562 1.49644 -0.000207688 -0.000922406 -0.000225565
1 1 0.761518 -0.893755 1.49643 -0.000207861 -0.000922393 -0.00022555
73 1 8.38413 -0.893801 1.49644 -0.000207688 -0.000922406 -0.000225565
127 1 11.2085 21.5345 11.6138 -0.000525734 0.000109781 0.000201285
42 2 1.31697 17.8139 6.8073 -0.00140284 0.00027146 -0.00191121
44 2 5.12832 17.8139 12.2492 -0.00140273 0.000271518 0.00191103
53 1 7.39722 21.5344 7.44269 -0.000525722 0.000109774 -0.000201253
54 2 1.31697 23.2039 6.8073 -0.00140284 0.00027146 -0.00191121
55 1 3.58593 21.5345 11.6139 -0.000525737 0.000109781 0.000201309
56 2 5.12832 23.2039 12.2492 -0.00140273 0.000271518 0.00191103
114 2 8.93957 17.8139 6.80729 -0.00140286 0.000271436 -0.0019112
126 2 8.93957 23.2039 6.80729 -0.00140286 0.000271436 -0.0019112
139 1 11.2085 26.9245 11.6138 -0.000525734 0.000109781 0.000201285
7 1 3.58593 -0.025546 11.6139 -0.000525737 0.000109781 0.000201309
5 1 7.39722 -0.025563 7.44269 -0.000525722 0.000109774 -0.000201253
79 1 11.2085 -0.025548 11.6138 -0.000525734 0.000109781 0.000201285
65 1 7.39722 26.9244 7.44269 -0.000525722 0.000109774 -0.000201253
66 2 1.31697 28.5939 6.8073 -0.00140284 0.00027146 -0.00191121
67 1 3.58593 26.9245 11.6139 -0.000525737 0.000109781 0.000201309
68 2 5.12832 28.5939 12.2492 -0.00140273 0.000271518 0.00191103
138 2 8.93957 28.5939 6.80729 -0.00140286 0.000271436 -0.0019112
38 2 0.165292 16.9495 -0.0571054 8.50905e-05 -0.000180772 0.000458383
50 2 0.165292 22.3395 -0.0571054 8.50905e-05 -0.000180772 0.000458383
59 1 4.57276 20.6663 17.5601 -0.000208229 -0.000922299 0.00022551
110 2 7.78792 16.9495 -0.0570974 8.49905e-05 -0.000180699 0.000458488
122 2 7.78792 22.3395 -0.0570974 8.49905e-05 -0.000180699 0.000458488
45 1 8.40566 16.7415 14.6495 0.00104477 0.000662708 -0.00057132
46 2 2.47667 18.1605 15.4779 0.000683444 0.000215069 0.000889112
57 1 8.40566 22.1315 14.6495 0.00104477 0.000662708 -0.00057132
58 2 2.47667 23.5505 15.4779 0.000683444 0.000215069 0.000889112
118 2 10.0993 18.1605 15.4779 0.000683431 0.000215084 0.000889109
130 2 10.0993 23.5505 15.4779 0.000683431 0.000215084 0.000889109
417 1 0.783029 22.1315 14.6496 0.00104475 0.000662681 -0.00057131
405 1 0.783029 16.7415 14.6496 0.00104475 0.000662681 -0.00057131
62 2 0.165292 27.7295 -0.0571054 8.50905e-05 -0.000180772 0.000458383
71 1 4.57276 26.0563 17.5601 -0.000208229 -0.000922299 0.00022551
134 2 7.78792 27.7295 -0.0570974 8.49905e-05 -0.000180699 0.000458488
142 2 10.0993 28.9405 15.4779 0.000683431 0.000215084 0.000889109
70 2 2.47667 28.9405 15.4779 0.000683444 0.000215069 0.000889112
69 1 8.40566 27.5215 14.6495 0.00104477 0.000662708 -0.00057132
11 1 4.57276 -0.893689 17.5601 -0.000208229 -0.000922299 0.00022551
429 1 0.783029 27.5215 14.6496 0.00104475 0.000662681 -0.00057131
76 2 13.9106 1.99043 3.57862 0.000683548 0.000214848 -0.000889081
84 2 11.5992 0.779623 19.1136 8.51264e-05 -0.000180693 -0.000458379
88 2 13.9106 7.38043 3.57862 0.000683548 0.000214848 -0.000889081
96 2 11.5992 6.16962 19.1136 8.51264e-05 -0.000180693 -0.000458379
147 1 19.8396 0.57151 4.40696 0.00104472 0.000662605 0.000571313
148 2 21.5332 1.99045 3.57861 0.000683513 0.00021493 -0.000889091
156 2 19.2218 0.779599 19.1136 8.51235e-05 -0.000180716 -0.000458338
157 1 16.0067 4.4962 1.49644 -0.000207702 -0.000922391 -0.000225564
159 1 19.8396 5.96151 4.40696 0.00104472 0.000662605 0.000571313
160 2 21.5332 7.38045 3.57861 0.000683513 0.00021493 -0.000889091
168 2 19.2218 6.1696 19.1136 8.51235e-05 -0.000180716 -0.000458338
87 1 12.217 5.9615 4.40697 0.00104469 0.000662562 0.00057132
75 1 12.217 0.571504 4.40697 0.00104469 0.000662562 0.00057132
100 2 13.9106 12.7704 3.57862 0.000683548 0.000214848 -0.000889081
108 2 11.5992 11.5596 19.1136 8.51264e-05 -0.000180693 -0.000458379
169 1 16.0067 9.8862 1.49644 -0.000207702 -0.000922391 -0.000225564
171 1 19.8396 11.3515 4.40696 0.00104472 0.000662605 0.000571313
172 2 21.5332 12.7704 3.57861 0.000683513 0.00021493 -0.000889091
180 2 19.2218 11.5596 19.1136 8.51235e-05 -0.000180716 -0.000458338
181 1 16.0067 15.2762 1.49644 -0.000207702 -0.000922391 -0.000225564
99 1 12.217 11.3515 4.40697 0.00104469 0.000662562 0.00057132
80 2 12.7509 1.64389 12.2492 -0.00140276 0.000271497 0.00191108
89 1 15.0198 5.36444 7.44269 -0.000525735 0.000109776 -0.000201268
92 2 12.7509 7.03389 12.2492 -0.00140276 0.000271497 0.00191108
150 2 16.5622 1.64388 6.8073 -0.00140286 0.000271446 -0.00191119
152 2 20.3735 1.64389 12.2492 -0.00140279 0.000271484 0.00191114
161 1 22.6425 5.36445 7.44268 -0.000525729 0.000109778 -0.000201288
162 2 16.5622 7.03388 6.8073 -0.00140286 0.000271446 -0.00191119
163 1 18.8311 5.36445 11.6139 -0.00052572 0.00010978 0.000201285
164 2 20.3735 7.03389 12.2492 -0.00140279 0.000271484 0.00191114
176 2 20.3735 12.4239 12.2492 -0.00140279 0.000271484 0.00191114
187 1 18.8311 16.1444 11.6139 -0.00052572 0.00010978 0.000201285
175 1 18.8311 10.7544 11.6139 -0.00052572 0.00010978 0.000201285
174 2 16.5622 12.4239 6.8073 -0.00140286 0.000271446 -0.00191119
185 1 22.6425 16.1444 7.44268 -0.000525729 0.000109778 -0.000201288
173 1 22.6425 10.7544 7.44268 -0.000525729 0.000109778 -0.000201288
113 1 15.0198 16.1444 7.44269 -0.000525735 0.000109776 -0.000201268
104 2 12.7509 12.4239 12.2492 -0.00140276 0.000271497 0.00191108
101 1 15.0198 10.7544 7.44269 -0.000525735 0.000109776 -0.000201268
95 1 12.1954 4.49632 17.5601 -0.000208267 -0.00092231 0.000225505
146 2 15.4105 0.77949 -0.0570929 8.49739e-05 -0.000180664 0.000458542
158 2 15.4105 6.16949 -0.0570929 8.49739e-05 -0.000180664 0.000458542
167 1 19.818 4.49631 17.5601 -0.000208158 -0.00092235 0.000225509
166 2 17.7219 7.38048 15.4779 0.000683445 0.00021506 0.000889122
154 2 17.7219 1.99048 15.4779 0.000683445 0.00021506 0.000889122
93 1 16.0283 5.96154 14.6495 0.00104478 0.000662707 -0.000571323
81 1 16.0283 0.571536 14.6495 0.00104478 0.000662707 -0.000571323
178 2 17.7219 12.7705 15.4779 0.000683445 0.00021506 0.000889122
105 1 16.0283 11.3515 14.6495 0.00104478 0.000662707 -0.000571323
107 1 12.1954 9.88632 17.5601 -0.000208267 -0.00092231 0.000225505
170 2 15.4105 11.5595 -0.0570929 8.49739e-05 -0.000180664 0.000458542
179 1 19.818 9.88631 17.5601 -0.000208158 -0.00092235 0.000225509
119 1 12.1954 15.2763 17.5601 -0.000208267 -0.00092231 0.000225505
191 1 19.818 15.2763 17.5601 -0.000208158 -0.00092235 0.000225509
112 2 13.9106 18.1604 3.57862 0.000683548 0.000214848 -0.000889081
120 2 11.5992 16.9496 19.1136 8.51264e-05 -0.000180693 -0.000458379
124 2 13.9106 23.5504 3.57862 0.000683548 0.000214848 -0.000889081
132 2 11.5992 22.3396 19.1136 8.51264e-05 -0.000180693 -0.000458379
183 1 19.8396 16.7415 4.40696 0.00104472 0.000662605 0.000571313
184 2 21.5332 18.1604 3.57861 0.000683513 0.00021493 -0.000889091
192 2 19.2218 16.9496 19.1136 8.51235e-05 -0.000180716 -0.000458338
193 1 16.0067 20.6662 1.49644 -0.000207702 -0.000922391 -0.000225564
195 1 19.8396 22.1315 4.40696 0.00104472 0.000662605 0.000571313
196 2 21.5332 23.5504 3.57861 0.000683513 0.00021493 -0.000889091
204 2 19.2218 22.3396 19.1136 8.51235e-05 -0.000180716 -0.000458338
123 1 12.217 22.1315 4.40697 0.00104469 0.000662562 0.00057132
111 1 12.217 16.7415 4.40697 0.00104469 0.000662562 0.00057132
136 2 13.9106 28.9404 3.57862 0.000683548 0.000214848 -0.000889081
144 2 11.5992 27.7296 19.1136 8.51264e-05 -0.000180693 -0.000458379
205 1 16.0067 26.0562 1.49644 -0.000207702 -0.000922391 -0.000225564
207 1 19.8396 27.5215 4.40696 0.00104472 0.000662605 0.000571313
208 2 21.5332 28.9404 3.57861 0.000683513 0.00021493 -0.000889091
216 2 19.2218 27.7296 19.1136 8.51235e-05 -0.000180716 -0.000458338
145 1 16.0067 -0.893804 1.49644 -0.000207702 -0.000922391 -0.000225564
135 1 12.217 27.5215 4.40697 0.00104469 0.000662562 0.00057132
116 2 12.7509 17.8139 12.2492 -0.00140276 0.000271497 0.00191108
125 1 15.0198 21.5344 7.44269 -0.000525735 0.000109776 -0.000201268
128 2 12.7509 23.2039 12.2492 -0.00140276 0.000271497 0.00191108
186 2 16.5622 17.8139 6.8073 -0.00140286 0.000271446 -0.00191119
188 2 20.3735 17.8139 12.2492 -0.00140279 0.000271484 0.00191114
197 1 22.6425 21.5344 7.44268 -0.000525729 0.000109778 -0.000201288
198 2 16.5622 23.2039 6.8073 -0.00140286 0.000271446 -0.00191119
199 1 18.8311 21.5344 11.6139 -0.00052572 0.00010978 0.000201285
200 2 20.3735 23.2039 12.2492 -0.00140279 0.000271484 0.00191114
212 2 20.3735 28.5939 12.2492 -0.00140279 0.000271484 0.00191114
151 1 18.8311 -0.0255507 11.6139 -0.00052572 0.00010978 0.000201285
211 1 18.8311 26.9244 11.6139 -0.00052572 0.00010978 0.000201285
210 2 16.5622 28.5939 6.8073 -0.00140286 0.000271446 -0.00191119
149 1 22.6425 -0.025554 7.44268 -0.000525729 0.000109778 -0.000201288
209 1 22.6425 26.9244 7.44268 -0.000525729 0.000109778 -0.000201288
77 1 15.0198 -0.0255614 7.44269 -0.000525735 0.000109776 -0.000201268
140 2 12.7509 28.5939 12.2492 -0.00140276 0.000271497 0.00191108