Created by /home/rramji/scripts/createLammpsInput.pl on Wed Aug 16 13:55:59 2023

        1280 atoms
         832 bonds
        1584 angles
        2224 dihedrals
           0 impropers

           5 atom types
           3 bond types
           1 angle types
           3 dihedral types
           0 improper types

#		  -2.456870  48.520131 xlo xhi
#		  -2.700270  33.469531 ylo yhi
#		   2.028460  39.744751 zlo zhi
		   0.000000  45.735666 xlo xhi
		   0.000000  32.339999 ylo yhi
		   0.000000   49.05653 zlo zhi
Masses

    1 1.5999E+01 # O_2    
    2 1.2011E+01 # C_3    
    3 1.0080E+00 # H_     
    4 6.5377E+01 # Zn     
    5 3.2060E+01 # S_3    

Pair Coeffs

    1    0.09570    3.03315 # O_2 O_2 
    2    0.09510    3.47299 # C_3 C_3 
    3    0.01520    2.84642 # H_ H_ 
    4    0.05500    4.04468 # Zn Zn 
    5    0.34400    3.59032 # S_3 S_3 

Bond Coeffs

    1      350     1.32 # O_2 C_3 
    2      350     1.53 # C_3 C_3 
    3      350     1.09 # C_3 H_ 

Angle Coeffs

    1       50  109.471 # X C_3 X 

Dihedral Coeffs

    1 0.166667        1        3 # X C_3 C_3 X 
    2 0.111111        1        3 # X C_3 C_3 X 
    3     0.25        1        3 # X C_3 C_3 X 

Atoms

       1        1        1 -0.85380000   26.67910   10.78000   20.75650    0    0    0
       2        1        1 -0.85380000   24.78550   11.37360   21.72820    0    0    0
       3        1        2 -0.07940000   26.52230   10.33370   28.17130    0    0    0
       4        1        2 -0.08040000   25.83590   10.87050   29.44530    0    0    0
       5        1        2 -0.07840000   25.84570   10.88790   26.90030    0    0    0
       6        1        2 -0.07640000   26.52230   10.33370   30.72140    0    0    0
       7        1        2 -0.07840000   26.53330   10.36290   25.62320    0    0    0
       8        1        2 -0.07940000   25.90730    8.31270   36.24690    0    0    0
       9        1        2 -0.07840000   25.99860    8.88730   37.67900    0    0    0
      10        1        2 -0.07740000   25.01800    9.20020   35.35030    0    0    0
      11        1        2 -0.05020000   25.90250   10.91870   32.00930    0    0    0
      12        1        2 -0.06540000   25.86210   10.93000   24.35410    0    0    0
      13        1        2 -0.07740000   26.79200    7.97780   38.64460    0    0    0
      14        1        2 -0.04520000   24.92740    8.64210   33.91610    0    0    0
      15        1        2 -0.15920000   24.46690   10.46860   32.21240    0    0    0
      16        1        2 -0.08140000   28.29920    7.91050   38.30850    0    0    0
      17        1        2 -0.19020000   24.04950    9.52030   33.04670    0    0    0
      18        1        2 -0.19440000   26.54830   10.40900   23.07210    0    0    0
      19        1        2 -0.09210000   29.06800    7.08860   39.35920    0    0    0
      20        1        2  0.90760000   25.93480   10.98640   21.80990    0    0    0
      21        1        3  0.03420000   26.47590    9.24170   28.16420    0    0    0
      22        1        3  0.03420000   27.57710   10.62010   28.17780    0    0    0
      23        1        3  0.03870000   25.87370   11.96240   29.44520    0    0    0
      24        1        3  0.03870000   24.78400   10.57490   29.43870    0    0    0
      25        1        3  0.03670000   25.88670   11.98040   26.91270    0    0    0
      26        1        3  0.03670000   24.79110   10.59810   26.89240    0    0    0
      27        1        3  0.03820000   27.58310   10.59500   30.69460    0    0    0
      28        1        3  0.03820000   26.45750    9.24280   30.74820    0    0    0
      29        1        3  0.02570000   27.58880   10.64660   25.63510    0    0    0
      30        1        3  0.02570000   26.48530    9.27060   25.60540    0    0    0
      31        1        3  0.03920000   25.49200    7.30260   36.28430    0    0    0
      32        1        3  0.03920000   26.90390    8.24610   35.80640    0    0    0
      33        1        3  0.03870000   24.98790    9.00930   38.07570    0    0    0
      34        1        3  0.03870000   26.45430    9.88050   37.65230    0    0    0
      35        1        3  0.04020000   24.01470    9.26470   35.77830    0    0    0
      36        1        3  0.04020000   25.42840   10.21270   35.31920    0    0    0
      37        1        3  0.04370000   25.93990   12.01000   31.97110    0    0    0
      38        1        3  0.04370000   26.52350   10.62580   32.85790    0    0    0
      39        1        3  0.04370000   24.80620   10.64540   24.34450    0    0    0
      40        1        3  0.04370000   25.90970   12.02140   24.37190    0    0    0
      41        1        3  0.03720000   26.36520    6.97150   38.63690    0    0    0
      42        1        3  0.03720000   26.67360    8.36740   39.65820    0    0    0
      43        1        3  0.04520000   25.93130    8.55380   33.49460    0    0    0
      44        1        3  0.04520000   24.51170    7.63120   33.94010    0    0    0
      45        1        3  0.12800000   23.72630   11.02020   31.63840    0    0    0
      46        1        3  0.04070000   28.44860    7.45480   37.32770    0    0    0
      47        1        3  0.04070000   28.71370    8.92100   38.27070    0    0    0
      48        1        3  0.11900000   22.98440    9.31230   33.11130    0    0    0
      49        1        3  0.01870000   26.48090    9.31880   23.03060    0    0    0
      50        1        3  0.01870000   27.61050   10.66690   23.10040    0    0    0
      51        1        3  0.03103000   28.68770    6.06540   39.40280    0    0    0
      52        1        3  0.03103000   28.97020    7.53850   40.35000    0    0    0
      53        1        3  0.03103000   30.12960    7.04950   39.10500    0    0    0
      54        2        1 -0.85380000   26.67910    5.39000   20.75650    0    0    0
      55        2        1 -0.85380000   24.78550    5.98360   21.72820    0    0    0
      56        2        2 -0.07940000   26.52230    4.94370   28.17130    0    0    0
      57        2        2 -0.08040000   25.83590    5.48050   29.44530    0    0    0
      58        2        2 -0.07840000   25.84570    5.49790   26.90030    0    0    0
      59        2        2 -0.07640000   26.52230    4.94370   30.72140    0    0    0
      60        2        2 -0.07840000   26.53330    4.97290   25.62320    0    0    0
      61        2        2 -0.07940000   25.90730    2.92270   36.24690    0    0    0
      62        2        2 -0.07840000   25.99860    3.49730   37.67900    0    0    0
      63        2        2 -0.07740000   25.01800    3.81020   35.35030    0    0    0
      64        2        2 -0.05020000   25.90250    5.52870   32.00930    0    0    0
      65        2        2 -0.06540000   25.86210    5.54000   24.35410    0    0    0
      66        2        2 -0.07740000   26.79200    2.58780   38.64460    0    0    0
      67        2        2 -0.04520000   24.92740    3.25210   33.91610    0    0    0
      68        2        2 -0.15920000   24.46690    5.07860   32.21240    0    0    0
      69        2        2 -0.08140000   28.29920    2.52050   38.30850    0    0    0
      70        2        2 -0.19020000   24.04950    4.13030   33.04670    0    0    0
      71        2        2 -0.19440000   26.54830    5.01900   23.07210    0    0    0
      72        2        2 -0.09210000   29.06800    1.69860   39.35920    0    0    0
      73        2        2  0.90760000   25.93480    5.59640   21.80990    0    0    0
      74        2        3  0.03420000   26.47590    3.85170   28.16420    0    0    0
      75        2        3  0.03420000   27.57710    5.23010   28.17780    0    0    0
      76        2        3  0.03870000   25.87370    6.57240   29.44520    0    0    0
      77        2        3  0.03870000   24.78400    5.18490   29.43870    0    0    0
      78        2        3  0.03670000   25.88670    6.59040   26.91270    0    0    0
      79        2        3  0.03670000   24.79110    5.20810   26.89240    0    0    0
      80        2        3  0.03820000   27.58310    5.20500   30.69460    0    0    0
      81        2        3  0.03820000   26.45750    3.85280   30.74820    0    0    0
      82        2        3  0.02570000   27.58880    5.25660   25.63510    0    0    0
      83        2        3  0.02570000   26.48530    3.88060   25.60540    0    0    0
      84        2        3  0.03920000   25.49200    1.91260   36.28430    0    0    0
      85        2        3  0.03920000   26.90390    2.85610   35.80640    0    0    0
      86        2        3  0.03870000   24.98790    3.61930   38.07570    0    0    0
      87        2        3  0.03870000   26.45430    4.49050   37.65230    0    0    0
      88        2        3  0.04020000   24.01470    3.87470   35.77830    0    0    0
      89        2        3  0.04020000   25.42840    4.82270   35.31920    0    0    0
      90        2        3  0.04370000   25.93990    6.62000   31.97110    0    0    0
      91        2        3  0.04370000   26.52350    5.23580   32.85790    0    0    0
      92        2        3  0.04370000   24.80620    5.25540   24.34450    0    0    0
      93        2        3  0.04370000   25.90970    6.63140   24.37190    0    0    0
      94        2        3  0.03720000   26.36520    1.58150   38.63690    0    0    0
      95        2        3  0.03720000   26.67360    2.97740   39.65820    0    0    0
      96        2        3  0.04520000   25.93130    3.16380   33.49460    0    0    0
      97        2        3  0.04520000   24.51170    2.24120   33.94010    0    0    0
      98        2        3  0.12800000   23.72630    5.63020   31.63840    0    0    0
      99        2        3  0.04070000   28.44860    2.06480   37.32770    0    0    0
     100        2        3  0.04070000   28.71370    3.53100   38.27070    0    0    0
     101        2        3  0.11900000   22.98440    3.92230   33.11130    0    0    0
     102        2        3  0.01870000   26.48090    3.92880   23.03060    0    0    0
     103        2        3  0.01870000   27.61050    5.27690   23.10040    0    0    0
     104        2        3  0.03103000   28.68770    0.67540   39.40280    0    0    0
     105        2        3  0.03103000   28.97020    2.14850   40.35000    0    0    0
     106        2        3  0.03103000   30.12960    1.65950   39.10500    0    0    0
     107        3        1 -0.85380000   19.05650   21.56000   20.75650    0    0    0
     108        3        1 -0.85380000   17.16290   22.15360   21.72820    0    0    0
     109        3        2 -0.07940000   18.89970   21.11370   28.17130    0    0    0
     110        3        2 -0.08040000   18.21330   21.65050   29.44530    0    0    0
     111        3        2 -0.07840000   18.22300   21.66790   26.90030    0    0    0
     112        3        2 -0.07640000   18.89970   21.11370   30.72140    0    0    0
     113        3        2 -0.07840000   18.91070   21.14290   25.62320    0    0    0
     114        3        2 -0.07940000   18.28460   19.09270   36.24690    0    0    0
     115        3        2 -0.07840000   18.37590   19.66730   37.67900    0    0    0
     116        3        2 -0.07740000   17.39540   19.98020   35.35030    0    0    0
     117        3        2 -0.05020000   18.27990   21.69870   32.00930    0    0    0
     118        3        2 -0.06540000   18.23950   21.71000   24.35410    0    0    0
     119        3        2 -0.07740000   19.16940   18.75780   38.64460    0    0    0
     120        3        2 -0.04520000   17.30480   19.42210   33.91610    0    0    0
     121        3        2 -0.15920000   16.84430   21.24860   32.21240    0    0    0
     122        3        2 -0.08140000   20.67660   18.69050   38.30850    0    0    0
     123        3        2 -0.19020000   16.42690   20.30030   33.04670    0    0    0
     124        3        2 -0.19440000   18.92570   21.18900   23.07210    0    0    0
     125        3        2 -0.09210000   21.44540   17.86860   39.35920    0    0    0
     126        3        2  0.90760000   18.31220   21.76640   21.80990    0    0    0
     127        3        3  0.03420000   18.85330   20.02170   28.16420    0    0    0
     128        3        3  0.03420000   19.95450   21.40010   28.17780    0    0    0
     129        3        3  0.03870000   18.25110   22.74240   29.44520    0    0    0
     130        3        3  0.03870000   17.16140   21.35490   29.43870    0    0    0
     131        3        3  0.03670000   18.26410   22.76040   26.91270    0    0    0
     132        3        3  0.03670000   17.16850   21.37810   26.89240    0    0    0
     133        3        3  0.03820000   19.96040   21.37500   30.69460    0    0    0
     134        3        3  0.03820000   18.83490   20.02280   30.74820    0    0    0
     135        3        3  0.02570000   19.96620   21.42660   25.63510    0    0    0
     136        3        3  0.02570000   18.86270   20.05060   25.60540    0    0    0
     137        3        3  0.03920000   17.86940   18.08260   36.28430    0    0    0
     138        3        3  0.03920000   19.28130   19.02610   35.80640    0    0    0
     139        3        3  0.03870000   17.36530   19.78930   38.07570    0    0    0
     140        3        3  0.03870000   18.83170   20.66050   37.65230    0    0    0
     141        3        3  0.04020000   16.39210   20.04470   35.77830    0    0    0
     142        3        3  0.04020000   17.80580   20.99270   35.31920    0    0    0
     143        3        3  0.04370000   18.31730   22.79000   31.97110    0    0    0
     144        3        3  0.04370000   18.90090   21.40580   32.85790    0    0    0
     145        3        3  0.04370000   17.18360   21.42540   24.34450    0    0    0
     146        3        3  0.04370000   18.28710   22.80140   24.37190    0    0    0
     147        3        3  0.03720000   18.74250   17.75150   38.63690    0    0    0
     148        3        3  0.03720000   19.05100   19.14740   39.65820    0    0    0
     149        3        3  0.04520000   18.30870   19.33380   33.49460    0    0    0
     150        3        3  0.04520000   16.88910   18.41120   33.94010    0    0    0
     151        3        3  0.12800000   16.10370   21.80020   31.63840    0    0    0
     152        3        3  0.04070000   20.82600   18.23480   37.32770    0    0    0
     153        3        3  0.04070000   21.09100   19.70100   38.27070    0    0    0
     154        3        3  0.11900000   15.36170   20.09230   33.11130    0    0    0
     155        3        3  0.01870000   18.85830   20.09880   23.03060    0    0    0
     156        3        3  0.01870000   19.98790   21.44690   23.10040    0    0    0
     157        3        3  0.03103000   21.06510   16.84540   39.40280    0    0    0
     158        3        3  0.03103000   21.34760   18.31850   40.35000    0    0    0
     159        3        3  0.03103000   22.50700   17.82950   39.10500    0    0    0
     160        4        1 -0.85380000   19.05650   16.17000   20.75650    0    0    0
     161        4        1 -0.85380000   17.16290   16.76360   21.72820    0    0    0
     162        4        2 -0.07940000   18.89970   15.72370   28.17130    0    0    0
     163        4        2 -0.08040000   18.21330   16.26050   29.44530    0    0    0
     164        4        2 -0.07840000   18.22300   16.27790   26.90030    0    0    0
     165        4        2 -0.07640000   18.89970   15.72370   30.72140    0    0    0
     166        4        2 -0.07840000   18.91070   15.75290   25.62320    0    0    0
     167        4        2 -0.07940000   18.28460   13.70270   36.24690    0    0    0
     168        4        2 -0.07840000   18.37590   14.27730   37.67900    0    0    0
     169        4        2 -0.07740000   17.39540   14.59020   35.35030    0    0    0
     170        4        2 -0.05020000   18.27990   16.30870   32.00930    0    0    0
     171        4        2 -0.06540000   18.23950   16.32000   24.35410    0    0    0
     172        4        2 -0.07740000   19.16940   13.36780   38.64460    0    0    0
     173        4        2 -0.04520000   17.30480   14.03210   33.91610    0    0    0
     174        4        2 -0.15920000   16.84430   15.85860   32.21240    0    0    0
     175        4        2 -0.08140000   20.67660   13.30050   38.30850    0    0    0
     176        4        2 -0.19020000   16.42690   14.91030   33.04670    0    0    0
     177        4        2 -0.19440000   18.92570   15.79900   23.07210    0    0    0
     178        4        2 -0.09210000   21.44540   12.47860   39.35920    0    0    0
     179        4        2  0.90760000   18.31220   16.37640   21.80990    0    0    0
     180        4        3  0.03420000   18.85330   14.63170   28.16420    0    0    0
     181        4        3  0.03420000   19.95450   16.01010   28.17780    0    0    0
     182        4        3  0.03870000   18.25110   17.35240   29.44520    0    0    0
     183        4        3  0.03870000   17.16140   15.96490   29.43870    0    0    0
     184        4        3  0.03670000   18.26410   17.37040   26.91270    0    0    0
     185        4        3  0.03670000   17.16850   15.98810   26.89240    0    0    0
     186        4        3  0.03820000   19.96040   15.98500   30.69460    0    0    0
     187        4        3  0.03820000   18.83490   14.63280   30.74820    0    0    0
     188        4        3  0.02570000   19.96620   16.03660   25.63510    0    0    0
     189        4        3  0.02570000   18.86270   14.66060   25.60540    0    0    0
     190        4        3  0.03920000   17.86940   12.69260   36.28430    0    0    0
     191        4        3  0.03920000   19.28130   13.63610   35.80640    0    0    0
     192        4        3  0.03870000   17.36530   14.39930   38.07570    0    0    0
     193        4        3  0.03870000   18.83170   15.27050   37.65230    0    0    0
     194        4        3  0.04020000   16.39210   14.65470   35.77830    0    0    0
     195        4        3  0.04020000   17.80580   15.60270   35.31920    0    0    0
     196        4        3  0.04370000   18.31730   17.40000   31.97110    0    0    0
     197        4        3  0.04370000   18.90090   16.01580   32.85790    0    0    0
     198        4        3  0.04370000   17.18360   16.03540   24.34450    0    0    0
     199        4        3  0.04370000   18.28710   17.41140   24.37190    0    0    0
     200        4        3  0.03720000   18.74250   12.36150   38.63690    0    0    0
     201        4        3  0.03720000   19.05100   13.75740   39.65820    0    0    0
     202        4        3  0.04520000   18.30870   13.94380   33.49460    0    0    0
     203        4        3  0.04520000   16.88910   13.02120   33.94010    0    0    0
     204        4        3  0.12800000   16.10370   16.41020   31.63840    0    0    0
     205        4        3  0.04070000   20.82600   12.84480   37.32770    0    0    0
     206        4        3  0.04070000   21.09100   14.31100   38.27070    0    0    0
     207        4        3  0.11900000   15.36170   14.70230   33.11130    0    0    0
     208        4        3  0.01870000   18.85830   14.70880   23.03060    0    0    0
     209        4        3  0.01870000   19.98790   16.05690   23.10040    0    0    0
     210        4        3  0.03103000   21.06510   11.45540   39.40280    0    0    0
     211        4        3  0.03103000   21.34760   12.92850   40.35000    0    0    0
     212        4        3  0.03103000   22.50700   12.43950   39.10500    0    0    0
     213        5        1 -0.85380000   19.05650   10.78000   20.75650    0    0    0
     214        5        1 -0.85380000   17.16290   11.37360   21.72820    0    0    0
     215        5        2 -0.07940000   18.89970   10.33370   28.17130    0    0    0
     216        5        2 -0.08040000   18.21330   10.87050   29.44530    0    0    0
     217        5        2 -0.07840000   18.22300   10.88790   26.90030    0    0    0
     218        5        2 -0.07640000   18.89970   10.33370   30.72140    0    0    0
     219        5        2 -0.07840000   18.91070   10.36290   25.62320    0    0    0
     220        5        2 -0.07940000   18.28460    8.31270   36.24690    0    0    0
     221        5        2 -0.07840000   18.37590    8.88730   37.67900    0    0    0
     222        5        2 -0.07740000   17.39540    9.20020   35.35030    0    0    0
     223        5        2 -0.05020000   18.27990   10.91870   32.00930    0    0    0
     224        5        2 -0.06540000   18.23950   10.93000   24.35410    0    0    0
     225        5        2 -0.07740000   19.16940    7.97780   38.64460    0    0    0
     226        5        2 -0.04520000   17.30480    8.64210   33.91610    0    0    0
     227        5        2 -0.15920000   16.84430   10.46860   32.21240    0    0    0
     228        5        2 -0.08140000   20.67660    7.91050   38.30850    0    0    0
     229        5        2 -0.19020000   16.42690    9.52030   33.04670    0    0    0
     230        5        2 -0.19440000   18.92570   10.40900   23.07210    0    0    0
     231        5        2 -0.09210000   21.44540    7.08860   39.35920    0    0    0
     232        5        2  0.90760000   18.31220   10.98640   21.80990    0    0    0
     233        5        3  0.03420000   18.85330    9.24170   28.16420    0    0    0
     234        5        3  0.03420000   19.95450   10.62010   28.17780    0    0    0
     235        5        3  0.03870000   18.25110   11.96240   29.44520    0    0    0
     236        5        3  0.03870000   17.16140   10.57490   29.43870    0    0    0
     237        5        3  0.03670000   18.26410   11.98040   26.91270    0    0    0
     238        5        3  0.03670000   17.16850   10.59810   26.89240    0    0    0
     239        5        3  0.03820000   19.96040   10.59500   30.69460    0    0    0
     240        5        3  0.03820000   18.83490    9.24280   30.74820    0    0    0
     241        5        3  0.02570000   19.96620   10.64660   25.63510    0    0    0
     242        5        3  0.02570000   18.86270    9.27060   25.60540    0    0    0
     243        5        3  0.03920000   17.86940    7.30260   36.28430    0    0    0
     244        5        3  0.03920000   19.28130    8.24610   35.80640    0    0    0
     245        5        3  0.03870000   17.36530    9.00930   38.07570    0    0    0
     246        5        3  0.03870000   18.83170    9.88050   37.65230    0    0    0
     247        5        3  0.04020000   16.39210    9.26470   35.77830    0    0    0
     248        5        3  0.04020000   17.80580   10.21270   35.31920    0    0    0
     249        5        3  0.04370000   18.31730   12.01000   31.97110    0    0    0
     250        5        3  0.04370000   18.90090   10.62580   32.85790    0    0    0
     251        5        3  0.04370000   17.18360   10.64540   24.34450    0    0    0
     252        5        3  0.04370000   18.28710   12.02140   24.37190    0    0    0
     253        5        3  0.03720000   18.74250    6.97150   38.63690    0    0    0
     254        5        3  0.03720000   19.05100    8.36740   39.65820    0    0    0
     255        5        3  0.04520000   18.30870    8.55380   33.49460    0    0    0
     256        5        3  0.04520000   16.88910    7.63120   33.94010    0    0    0
     257        5        3  0.12800000   16.10370   11.02020   31.63840    0    0    0
     258        5        3  0.04070000   20.82600    7.45480   37.32770    0    0    0
     259        5        3  0.04070000   21.09100    8.92100   38.27070    0    0    0
     260        5        3  0.11900000   15.36170    9.31230   33.11130    0    0    0
     261        5        3  0.01870000   18.85830    9.31880   23.03060    0    0    0
     262        5        3  0.01870000   19.98790   10.66690   23.10040    0    0    0
     263        5        3  0.03103000   21.06510    6.06540   39.40280    0    0    0
     264        5        3  0.03103000   21.34760    7.53850   40.35000    0    0    0
     265        5        3  0.03103000   22.50700    7.04950   39.10500    0    0    0
     266        6        1 -0.85380000   19.05650    5.39000   20.75650    0    0    0
     267        6        1 -0.85380000   17.16290    5.98360   21.72820    0    0    0
     268        6        2 -0.07940000   18.89970    4.94370   28.17130    0    0    0
     269        6        2 -0.08040000   18.21330    5.48050   29.44530    0    0    0
     270        6        2 -0.07840000   18.22300    5.49790   26.90030    0    0    0
     271        6        2 -0.07640000   18.89970    4.94370   30.72140    0    0    0
     272        6        2 -0.07840000   18.91070    4.97290   25.62320    0    0    0
     273        6        2 -0.07940000   18.28460    2.92270   36.24690    0    0    0
     274        6        2 -0.07840000   18.37590    3.49730   37.67900    0    0    0
     275        6        2 -0.07740000   17.39540    3.81020   35.35030    0    0    0
     276        6        2 -0.05020000   18.27990    5.52870   32.00930    0    0    0
     277        6        2 -0.06540000   18.23950    5.54000   24.35410    0    0    0
     278        6        2 -0.07740000   19.16940    2.58780   38.64460    0    0    0
     279        6        2 -0.04520000   17.30480    3.25210   33.91610    0    0    0
     280        6        2 -0.15920000   16.84430    5.07860   32.21240    0    0    0
     281        6        2 -0.08140000   20.67660    2.52050   38.30850    0    0    0
     282        6        2 -0.19020000   16.42690    4.13030   33.04670    0    0    0
     283        6        2 -0.19440000   18.92570    5.01900   23.07210    0    0    0
     284        6        2 -0.09210000   21.44540    1.69860   39.35920    0    0    0
     285        6        2  0.90760000   18.31220    5.59640   21.80990    0    0    0
     286        6        3  0.03420000   18.85330    3.85170   28.16420    0    0    0
     287        6        3  0.03420000   19.95450    5.23010   28.17780    0    0    0
     288        6        3  0.03870000   18.25110    6.57240   29.44520    0    0    0
     289        6        3  0.03870000   17.16140    5.18490   29.43870    0    0    0
     290        6        3  0.03670000   18.26410    6.59040   26.91270    0    0    0
     291        6        3  0.03670000   17.16850    5.20810   26.89240    0    0    0
     292        6        3  0.03820000   19.96040    5.20500   30.69460    0    0    0
     293        6        3  0.03820000   18.83490    3.85280   30.74820    0    0    0
     294        6        3  0.02570000   19.96620    5.25660   25.63510    0    0    0
     295        6        3  0.02570000   18.86270    3.88060   25.60540    0    0    0
     296        6        3  0.03920000   17.86940    1.91260   36.28430    0    0    0
     297        6        3  0.03920000   19.28130    2.85610   35.80640    0    0    0
     298        6        3  0.03870000   17.36530    3.61930   38.07570    0    0    0
     299        6        3  0.03870000   18.83170    4.49050   37.65230    0    0    0
     300        6        3  0.04020000   16.39210    3.87470   35.77830    0    0    0
     301        6        3  0.04020000   17.80580    4.82270   35.31920    0    0    0
     302        6        3  0.04370000   18.31730    6.62000   31.97110    0    0    0
     303        6        3  0.04370000   18.90090    5.23580   32.85790    0    0    0
     304        6        3  0.04370000   17.18360    5.25540   24.34450    0    0    0
     305        6        3  0.04370000   18.28710    6.63140   24.37190    0    0    0
     306        6        3  0.03720000   18.74250    1.58150   38.63690    0    0    0
     307        6        3  0.03720000   19.05100    2.97740   39.65820    0    0    0
     308        6        3  0.04520000   18.30870    3.16380   33.49460    0    0    0
     309        6        3  0.04520000   16.88910    2.24120   33.94010    0    0    0
     310        6        3  0.12800000   16.10370    5.63020   31.63840    0    0    0
     311        6        3  0.04070000   20.82600    2.06480   37.32770    0    0    0
     312        6        3  0.04070000   21.09100    3.53100   38.27070    0    0    0
     313        6        3  0.11900000   15.36170    3.92230   33.11130    0    0    0
     314        6        3  0.01870000   18.85830    3.92880   23.03060    0    0    0
     315        6        3  0.01870000   19.98790    5.27690   23.10040    0    0    0
     316        6        3  0.03103000   21.06510    0.67540   39.40280    0    0    0
     317        6        3  0.03103000   21.34760    2.14850   40.35000    0    0    0
     318        6        3  0.03103000   22.50700    1.65950   39.10500    0    0    0
     319        7        1 -0.85380000   11.43390   21.56000   20.75650    0    0    0
     320        7        1 -0.85380000    9.54020   22.15360   21.72820    0    0    0
     321        7        2 -0.07940000   11.27710   21.11370   28.17130    0    0    0
     322        7        2 -0.08040000   10.59070   21.65050   29.44530    0    0    0
     323        7        2 -0.07840000   10.60040   21.66790   26.90030    0    0    0
     324        7        2 -0.07640000   11.27710   21.11370   30.72140    0    0    0
     325        7        2 -0.07840000   11.28810   21.14290   25.62320    0    0    0
     326        7        2 -0.07940000   10.66200   19.09270   36.24690    0    0    0
     327        7        2 -0.07840000   10.75330   19.66730   37.67900    0    0    0
     328        7        2 -0.07740000    9.77280   19.98020   35.35030    0    0    0
     329        7        2 -0.05020000   10.65730   21.69870   32.00930    0    0    0
     330        7        2 -0.06540000   10.61690   21.71000   24.35410    0    0    0