ITEM: TIMESTEP
0
ITEM: NUMBER OF ATOMS
1280
ITEM: BOX BOUNDS pp pp pp
0.0000000000000000e+00 4.5735666000000002e+01
0.0000000000000000e+00 3.2339998999999999e+01
0.0000000000000000e+00 3.9056530000000002e+01
ITEM: ATOMS id type xu yu zu vx vy vz
1 1 0 0 0 0 -0 -0
2 2 1.90565 1.3475 0 0 0 0
3 1 3.81131 0 3.81131 0 -0 0
4 2 5.71696 1.3475 3.81131 0 -0 -0
13 1 0 5.39 0 -0 -0 -0
14 2 1.90565 6.7375 0 0 0 -0
15 1 3.81131 5.39 3.81131 0 0 0
16 2 5.71696 6.7375 3.81131 0 0 -0
73 1 7.62261 0 0 -0 -0 0
85 1 7.62261 5.39 0 0 0 0
74 2 9.52826 1.3475 0 0 0 -0
75 1 11.4339 0 3.81131 -0 0 -0
76 2 13.3396 1.3475 3.81131 0 0 0
86 2 9.52826 6.7375 0 -0 -0 -0
87 1 11.4339 5.39 3.81131 -0 0 0
88 2 13.3396 6.7375 3.81131 0 -0 -0
145 1 15.2452 0 0 -0 0 -0
157 1 15.2452 5.39 0 0 0 -0
451 4 13.8852 2.80308 39.7365 0 0 0
474 5 11.492 3.15908 39.2102 -0 -0 -0
483 5 13.486 1.85127 40.0869 0 -0 -0
484 5 13.4982 3.60445 40.3659 0 -0 -0
485 5 14.9736 2.78824 39.7931 -0 0 -0
854 5 13.495 7.23765 40.0945 -0 -0 -0
146 2 17.1509 1.3475 0 0 -0 -0
147 1 19.0565 0 3.81131 0 -0 0
148 2 20.9622 1.3475 3.81131 0 0 0
158 2 17.1509 6.7375 0 -0 0 0
159 1 19.0565 5.39 3.81131 -0 0 -0
160 2 20.9622 6.7375 3.81131 0 -0 0
217 1 22.8678 0 0 0 -0 -0
229 1 22.8678 5.39 0 0 0 -0
981 4 21.5072 2.80376 39.7357 0 -0 -0
1004 5 19.1135 3.15886 39.2128 0 0 0
1013 5 21.1078 1.8517 40.0853 0 -0 0
1014 5 21.1206 3.60433 40.3664 -0 -0 -0
1015 5 22.5956 2.78844 39.7912 -0 0 0
1066 5 21.1165 7.23804 40.0926 0 0 0
25 1 0 10.78 0 0 0 0
26 2 1.90565 12.1275 0 0 0 0
27 1 3.81131 10.78 3.81131 0 -0 0
28 2 5.71696 12.1275 3.81131 0 0 -0
97 1 7.62261 10.78 0 -0 -0 0
822 4 13.8926 8.18914 39.7414 -0 0 -0
855 5 13.5042 8.99171 40.3684 0 -0 0
856 5 14.9811 8.17733 39.7978 0 0 0
98 2 9.52826 12.1275 0 -0 -0 -0
99 1 11.4339 10.78 3.81131 -0 -0 -0
100 2 13.3396 12.1275 3.81131 -0 -0 -0
169 1 15.2452 10.78 0 0 0 -0
845 5 11.4999 8.53021 39.2217 -0 -0 -0
875 4 13.8915 13.5792 39.7406 -0 -0 -0
898 5 11.4989 13.9217 39.22 0 -0 -0
907 5 13.4937 12.6277 40.0935 -0 -0 0
908 5 13.5033 14.3817 40.3678 0 -0 -0
909 5 14.98 13.5669 39.7972 -0 -0 0
1034 4 21.5143 8.18979 39.7403 -0 0 -0
1067 5 21.1263 8.99154 40.3686 0 0 0
1068 5 22.6028 8.1775 39.7958 -0 -0 0
170 2 17.1509 12.1275 0 -0 0 0
171 1 19.0565 10.78 3.81131 0 0 -0
172 2 20.9622 12.1275 3.81131 -0 -0 -0
241 1 22.8678 10.78 0 0 -0 -0
1057 5 19.1212 8.52949 39.2238 -0 0 0
1087 4 21.5129 13.5799 39.7393 -0 -0 0
1110 5 19.1198 13.9212 39.2216 0 -0 0
1119 5 21.1149 12.6281 40.0913 -0 0 0
1120 5 21.1251 14.3815 40.3678 0 -0 0
1121 5 22.6014 13.567 39.795 -0 -0 -0
5 1 7.62261 0 7.62261 0 -0 -0
6 2 1.90565 1.3475 7.62261 -0 -0 -0
7 1 3.81131 0 11.4339 -0 0 -0
8 2 5.71696 1.3475 11.4339 0 0 -0
17 1 7.62261 5.39 7.62261 -0 0 0
18 2 1.90565 6.7375 7.62261 0 0 -0
19 1 3.81131 5.39 11.4339 0 -0 0
20 2 5.71696 6.7375 11.4339 -0 -0 0
365 1 0 0 7.62261 -0 0 -0
377 1 0 5.39 7.62261 0 -0 -0
77 1 15.2452 0 7.62261 0 0 0
78 2 9.52826 1.3475 7.62261 -0 0 0
79 1 11.4339 0 11.4339 -0 0 -0
80 2 13.3396 1.3475 11.4339 0 0 0
89 1 15.2452 5.39 7.62261 0 -0 -0
90 2 9.52826 6.7375 7.62261 -0 0 0
91 1 11.4339 5.39 11.4339 0 -0 0
92 2 13.3396 6.7375 11.4339 0 -0 -0
149 1 22.8678 0 7.62261 -0 0 -0
150 2 17.1509 1.3475 7.62261 -0 -0 0
151 1 19.0565 0 11.4339 0 -0 0
152 2 20.9622 1.3475 11.4339 0 0 0
161 1 22.8678 5.39 7.62261 -0 0 0
162 2 17.1509 6.7375 7.62261 -0 -0 -0
163 1 19.0565 5.39 11.4339 -0 -0 0
164 2 20.9622 6.7375 11.4339 -0 0 -0
29 1 7.62261 10.78 7.62261 0 -0 0
30 2 1.90565 12.1275 7.62261 0 -0 -0
31 1 3.81131 10.78 11.4339 0 0 -0
32 2 5.71696 12.1275 11.4339 0 0 0
389 1 0 10.78 7.62261 0 -0 0
101 1 15.2452 10.78 7.62261 0 0 -0
102 2 9.52826 12.1275 7.62261 0 -0 0
103 1 11.4339 10.78 11.4339 -0 -0 0
104 2 13.3396 12.1275 11.4339 0 0 0
173 1 22.8678 10.78 7.62261 0 0 0
174 2 17.1509 12.1275 7.62261 0 0 0
175 1 19.0565 10.78 11.4339 0 -0 0
176 2 20.9622 12.1275 11.4339 -0 -0 0
9 1 7.62261 0 15.2452 0 -0 0
10 2 1.90565 1.3475 15.2452 0 -0 -0
11 1 3.81131 0 19.0565 0 0 -0
12 2 5.71696 1.3475 19.0565 0 0 -0
21 1 7.62261 5.39 15.2452 0 -0 -0
22 2 1.90565 6.7375 15.2452 0 0 -0
23 1 3.81131 5.39 19.0565 -0 -0 -0
24 2 5.71696 6.7375 19.0565 -0 0 -0
369 1 0 0 15.2452 0 -0 0
381 1 0 5.39 15.2452 -0 -0 -0
81 1 15.2452 0 15.2452 -0 -0 0
82 2 9.52826 1.3475 15.2452 -0 0 0
83 1 11.4339 0 19.0565 -0 -0 -0
84 2 13.3396 1.3475 19.0565 -0 -0 0
93 1 15.2452 5.39 15.2452 -0 -0 0
94 2 9.52826 6.7375 15.2452 0 0 0
95 1 11.4339 5.39 19.0565 -0 0 -0
96 2 13.3396 6.7375 19.0565 -0 0 0
433 3 9.02772 6.19909 18.8759 -0 0 -0
434 3 8.87083 4.97426 18.9316 0 -0 0
153 1 22.8678 0 15.2452 0 0 0
154 2 17.1509 1.3475 15.2452 -0 0 -0
155 1 19.0565 0 19.0565 0 -0 0
156 2 20.9622 1.3475 19.0565 0 0 -0
165 1 22.8678 5.39 15.2452 0 -0 0
166 2 17.1509 6.7375 15.2452 0 -0 -0
167 1 19.0565 5.39 19.0565 0 -0 0
168 2 20.9622 6.7375 19.0565 -0 -0 0
963 3 16.7111 6.29497 18.9253 -0 0 0
964 3 16.5144 5.05488 18.9768 -0 -0 -0
33 1 7.62261 10.78 15.2452 0 -0 -0
34 2 1.90565 12.1275 15.2452 -0 0 -0
35 1 3.81131 10.78 19.0565 -0 -0 -0
36 2 5.71696 12.1275 19.0565 -0 0 -0
393 1 0 10.78 15.2452 0 -0 -0
105 1 15.2452 10.78 15.2452 -0 0 -0
106 2 9.52826 12.1275 15.2452 0 0 -0
107 1 11.4339 10.78 19.0565 -0 -0 0
108 2 13.3396 12.1275 19.0565 -0 -0 0
804 3 9.34993 12.2281 18.9029 -0 0 -0
805 3 8.84695 11.0595 18.8995 0 0 0
177 1 22.8678 10.78 15.2452 0 0 0
178 2 17.1509 12.1275 15.2452 -0 -0 -0
179 1 19.0565 10.78 19.0565 0 0 0
180 2 20.9622 12.1275 19.0565 -0 -0 -0
1016 3 17.2339 12.5198 18.9902 -0 0 0
1017 3 16.5737 11.3775 18.9455 -0 -0 -0
439 4 10.6758 5.16673 24.5328 -0 0 -0
444 4 9.75087 5.72233 23.2568 0 -0 -0
450 4 9.88955 5.44608 21.5834 -0 0 -0
452 4 8.78196 5.67643 20.3071 -0 -0 0
461 5 11.7122 5.48019 24.4075 -0 0 -0
462 5 10.6906 4.07686 24.5247 -0 0 0
471 5 8.74606 5.45096 23.5805 0 -0 -0
472 5 9.83056 6.79585 23.4279 -0 -0 0
481 5 10.1809 4.39595 21.5631 -0 0 -0
482 5 10.7844 6.04739 21.4231 -0 -0 -0
969 4 18.3254 5.18433 24.5685 0 0 -0
974 4 17.4069 5.75864 23.2949 0 -0 -0
980 4 17.5401 5.49735 21.6184 -0 0 -0
982 4 16.4323 5.76803 20.3475 -0 -0 -0
991 5 19.3639 5.49419 24.4515 -0 -0 0
992 5 18.3347 4.09452 24.5501 0 0 -0
1001 5 16.4007 5.48865 23.6154 0 -0 0
1002 5 17.4905 6.83018 23.4763 0 0 0
1011 5 17.8013 4.43954 21.5885 0 -0 0
1012 5 18.4516 6.07189 21.4538 -0 0 0
810 4 10.6968 10.707 24.4878 0 -0 0
815 4 9.80437 11.3691 23.2423 0 -0 -0
821 4 9.9536 11.2069 21.5563 0 -0 -0
823 4 8.93778 11.7238 20.2937 0 -0 -0
832 5 11.7433 10.9968 24.3935 0 -0 0
833 5 10.6822 9.61934 24.4172 -0 -0 -0
842 5 8.79248 11.082 23.5282 0 -0 -0
843 5 9.8919 12.4284 23.4838 -0 0 0
852 5 10.075 10.1281 21.4585 -0 -0 -0
853 5 10.9337 11.6706 21.4442 -0 0 -0
886 5 10.6977 15.0993 24.3678 -0 0 -0
905 5 10.0523 15.7165 21.4131 0 -0 0
1022 4 18.3705 10.7634 24.5214 0 0 0
1027 4 17.5035 11.4738 23.2818 0 0 0
1033 4 17.6713 11.366 21.5957 0 -0 -0
1035 4 16.718 12.0193 20.3449 0 -0 0
1044 5 19.4221 11.0408 24.4482 0 0 0
1045 5 18.3408 9.67829 24.4222 0 -0 0
1054 5 16.4873 11.1779 23.5425 -0 0 -0
1055 5 17.5875 12.5245 23.5594 -0 0 -0
1064 5 17.6996 10.2849 21.4592 -0 0 0
1065 5 18.689 11.7442 21.4986 -0 -0 -0
1098 5 18.3685 15.1749 24.3607 -0 -0 -0
1117 5 17.7027 15.9172 21.4022 0 0 0
435 4 11.0528 4.99084 27.4572 0 -0 0
436 4 10.4743 5.46369 28.8898 0 -0 0
437 4 10.3362 5.55302 26.1026 0 -0 -0
438 4 11.0535 4.881 30.2557 0 -0 0
443 4 10.6685 5.58276 31.6224 -0 -0 0
447 4 9.22498 5.46887 32.2134 -0 -0 0
453 5 11.0268 3.90121 27.4682 -0 -0 -0
454 5 12.106 5.27167 27.4613 -0 0 0
455 5 10.5915 6.54556 28.9524 -0 0 0
456 5 9.4053 5.25194 28.9136 0 -0 0
457 5 10.4393 6.63327 26.2053 0 0 -0
458 5 9.2844 5.32128 26.2701 0 0 0
459 5 12.14 4.94469 30.1957 -0 -0 -0
460 5 10.8085 3.82253 30.3433 -0 0 -0
469 5 10.8633 6.64799 31.4982 0 0 0
477 5 8.54115 5.85696 31.4586 -0 0 0
470 5 11.3599 5.24509 32.3944 0 0 0
480 5 8.36958 3.53726 31.8898 0 0 0
965 4 18.6891 4.99057 27.4928 -0 -0 0
966 4 18.1019 5.46187 28.9209 -0 0 0
967 4 17.9774 5.55797 26.1383 -0 0 -0
968 4 18.6762 4.88083 30.2887 -0 0 0
973 4 18.2829 5.5867 31.6499 0 -0 0
977 4 16.8354 5.47203 32.2307 -0 0 -0
983 5 18.661 3.90096 27.5008 0 0 0
984 5 19.7425 5.27061 27.502 0 0 -0
985 5 18.2149 6.54423 28.9828 0 -0 0
986 5 17.0335 5.24685 28.9385 0 0 -0
987 5 18.0739 6.63815 26.248 0 -0 0
988 5 16.9259 5.31988 26.2985 0 -0 0
989 5 19.7629 4.94442 30.2329 -0 -0 0
990 5 18.4298 3.82267 30.3764 -0 -0 -0
999 5 18.4761 6.65177 31.5219 -0 0 -0
1007 5 16.1566 5.85893 31.4706 0 -0 -0
1000 5 18.9703 5.25313 32.4273 -0 0 -0
1010 5 15.9764 3.54353 31.9 -0 -0 -0
806 4 11.0507 10.4127 27.4136 0 -0 0
807 4 10.4697 10.8616 28.8549 -0 -0 -0
808 4 10.3411 11.0142 26.0731 -0 0 0
809 4 11.045 10.2676 30.2179 0 0 -0
814 4 10.6744 10.9708 31.5898 -0 -0 -0
818 4 9.23321 10.8802 32.1919 0 -0 -0
824 5 11.0154 9.32333 27.402 0 0 0
825 5 12.1065 10.6836 27.4263 -0 -0 -0
826 5 10.583 11.9432 28.9291 -0 0 0
827 5 9.4014 10.6457 28.8727 0 0 -0
828 5 10.4252 12.0913 26.2174 0 0 -0
829 5 9.29177 10.7575 26.2187 0 0 0
830 5 12.1319 10.3181 30.1547 0 -0 -0
831 5 10.7879 9.2119 30.3043 0 0 0
840 5 10.8818 12.0336 31.4653 0 -0 -0
848 5 8.54827 11.2595 31.4336 0 0 -0
859 4 11.0557 15.8296 27.3928 0 -0 0
862 4 11.0435 15.6616 30.1979 0 0 -0
877 5 11.0165 14.7406 27.3695 -0 -0 -0
878 5 12.1125 16.0957 27.4127 -0 0 0
880 5 9.40258 16.0436 28.8512 0 0 0
883 5 12.1306 15.7086 30.1348 -0 0 -0
884 5 10.7837 14.6062 30.2798 0 0 -0
841 5 11.3664 10.6242 32.3574 -0 0 -0
851 5 8.35546 8.95328 31.9215 0 0 -0
894 5 11.3692 16.0072 32.339 0 -0 -0
904 5 8.3581 14.3406 31.9172 -0 -0 0
1116 5 15.9626 14.3461 31.9267 -0 -0 -0
1106 5 18.9801 16.0115 32.3597 -0 -0 0
1063 5 15.9598 8.95968 31.9322 -0 -0 0
1018 4 18.6917 10.4214 27.4449 -0 -0 0
1019 4 18.0981 10.8628 28.8814 -0 -0 -0
1020 4 17.992 11.0367 26.1048 0 0 -0
1021 4 18.6668 10.268 30.2466 -0 0 -0
1026 4 18.2882 10.974 31.6137 0 -0 -0
1030 4 16.8431 10.8831 32.2062 0 -0 -0
1036 5 18.652 9.33237 27.4243 -0 -0 0
1037 5 19.7481 10.6894 27.4663 0 -0 -0
1038 5 18.2047 11.9449 28.9583 -0 -0 -0
1039 5 17.0308 10.6416 28.8905 0 0 0
1040 5 18.0605 12.1123 26.2677 0 0 0
1041 5 16.9443 10.7648 26.233 0 -0 0
1042 5 19.7541 10.3173 30.1878 -0 -0 -0
1043 5 18.4072 9.21279 30.3314 0 0 0
1052 5 18.4943 12.0368 31.4863 -0 -0 0
1060 5 16.163 11.2602 31.4424 0 0 -0
1071 4 18.698 15.8445 27.416 0 0 -0
1074 4 18.6643 15.6631 30.2182 0 0 0
1089 5 18.6536 14.756 27.3808 -0 0 0
1090 5 19.7556 16.1067 27.446 -0 0 -0
1092 5 17.0318 16.0418 28.8596 0 0 0
1095 5 19.7517 15.708 30.1592 0 -0 -0
1096 5 18.4012 14.6082 30.2971 -0 0 0
1053 5 18.9764 10.6308 32.3862 -0 -0 -0
440 4 10.8356 3.15071 35.8919 0 0 0
441 4 11.1233 3.84616 37.2427 -0 -0 0
442 4 9.81655 3.94443 35.0387 -0 -0 0
445 4 11.906 2.94006 38.2259 -0 -0 0
446 4 9.58786 3.27341 33.6615 -0 -0 -0
448 4 13.4284 2.99432 38.2585 -0 0 0
449 4 8.66964 4.12103 32.76 -0 -0 0
463 5 10.4392 2.14265 36.0137 -0 -0 0
464 5 11.7581 3.06947 35.3171 0 0 0
465 5 10.1482 4.09485 37.6616 -0 -0 0
466 5 11.6453 4.77853 37.0276 -0 -0 -0
467 5 8.84633 4.01578 35.5303 0 0 -0
468 5 10.1948 4.94968 34.8528 0 0 0
473 5 11.729 1.90353 37.9389 -0 -0 -0
475 5 10.5256 3.10729 33.1311 -0 0 -0
476 5 9.11146 2.30043 33.7817 0 -0 0
478 5 13.8409 2.22901 37.6011 0 0 0
479 5 13.706 3.91679 37.7485 0 -0 0
834 5 10.4171 7.56994 36.0256 -0 -0 -0
844 5 11.7281 7.29437 37.9314 0 0 0
847 5 9.08364 7.75164 33.8328 0 -0 -0
849 5 13.8429 7.60353 37.6095 0 0 0
970 4 18.4492 3.14937 35.8971 0 0 0
971 4 18.7402 3.84578 37.2466 -0 -0 0
972 4 17.4258 3.94146 35.048 0 0 0
975 4 19.5266 2.94091 38.228 0 -0 -0
976 4 17.1956 3.27213 33.6703 -0 0 0
978 4 21.0488 2.99724 38.2583 0 -0 0
979 4 16.2777 4.12336 32.7724 0 -0 0
993 5 18.0547 2.14069 36.0198 0 -0 0
994 5 19.3698 3.06992 35.3189 0 -0 0
995 5 17.7659 4.09356 37.6679 0 -0 -0
996 5 19.2605 4.77866 37.0294 0 0 -0
997 5 16.4564 4.00959 35.5418 -0 -0 0
998 5 17.801 4.94798 34.863 -0 0 -0
1003 5 19.3512 1.90418 37.9407 -0 -0 -0
1005 5 18.1322 3.10625 33.1381 0 0 -0
1006 5 16.7181 2.29945 33.7887 0 0 0
1008 5 21.4614 2.23358 37.599 -0 -0 0
1009 5 21.3235 3.92136 37.7498 -0 -0 -0
1046 5 18.0308 7.56853 36.0317 0 0 0
1056 5 19.3501 7.29489 37.9324 0 0 -0
1059 5 16.6881 7.7522 33.8407 -0 0 -0
1061 5 21.4633 7.60826 37.6071 0 -0 -0
816 4 11.9111 8.32566 38.2331 -0 -0 0
819 4 13.4343 8.37406 38.2633 -0 0 -0
811 4 10.8264 8.57363 35.9108 0 0 0
812 4 11.1288 9.25036 37.2669 -0 0 0
813 4 9.81657 9.38943 35.0659 -0 -0 0
817 4 9.57349 8.71549 33.6945 0 -0 0
820 4 8.66406 9.55417 32.7769 0 0 -0
835 5 11.7462 8.48305 35.3331 -0 0 -0
836 5 10.1577 9.49965 37.6944 -0 0 0
837 5 11.6568 10.1809 37.0587 -0 -0 -0
838 5 8.8495 9.47625 35.5612 -0 -0 -0
839 5 10.2101 10.3875 34.8736 -0 -0 -0
846 5 10.5091 8.5313 33.1664 0 -0 0
850 5 13.7172 9.29175 37.7476 0 0 -0
864 4 10.8272 13.9649 35.9082 -0 0 -0
865 4 11.1287 14.6415 37.2645 0 0 0
866 4 9.81961 14.7813 35.0609 0 -0 0
869 4 11.9103 13.717 38.2316 0 0 0
870 4 9.57671 14.1064 33.6898 -0 0 -0
872 4 13.4336 13.7644 38.2624 0 -0 -0
873 4 8.66804 14.9442 32.7703 0 0 -0
887 5 10.4163 12.9618 36.0233 -0 0 -0
888 5 11.7476 13.8723 35.3317 -0 -0 0
889 5 10.1571 14.8905 37.6913 -0 -0 0
890 5 11.6569 15.572 37.0568 -0 -0 -0
891 5 8.85218 14.8699 35.5552 -0 0 -0
892 5 10.2147 15.7787 34.8678 -0 -0 0
897 5 11.7269 12.6858 37.9299 -0 -0 0
899 5 10.5121 13.9197 33.1622 -0 -0 0
900 5 9.08573 13.1433 33.8296 0 0 0
902 5 13.8418 12.9934 37.609 0 0 -0
903 5 13.7175 14.6818 37.7466 0 -0 0
1101 5 17.7743 14.8894 37.697 0 -0 0
1100 5 19.3582 13.8727 35.3328 -0 -0 -0
1099 5 18.0297 12.961 36.0284 0 -0 -0
1085 4 16.2762 14.9477 32.7799 0 -0 -0
1084 4 21.0536 13.7675 38.2617 -0 0 0
1082 4 17.184 14.1069 33.6973 -0 0 -0
1077 4 18.745 14.6414 37.2676 -0 0 0
1111 5 18.1184 13.9198 33.1682 0 0 -0
1103 5 16.4618 14.866 35.5651 -0 0 -0
1109 5 19.3485 12.6865 37.9303 0 -0 0
1081 4 19.5305 13.7179 38.2326 -0 -0 0
1078 4 17.4285 14.7801 35.0689 -0 0 0
1076 4 18.4396 13.9643 35.9124 -0 0 -0
1102 5 19.2716 15.5724 37.0579 -0 -0 -0
1104 5 17.8212 15.7785 34.8762 0 -0 0
1115 5 21.3346 14.6866 37.7476 0 0 -0
1114 5 21.4621 12.9982 37.6064 -0 0 -0
1112 5 16.6914 13.1445 33.8359 -0 -0 0
1062 5 21.3343 9.29652 37.7488 0 0 -0
1028 4 19.5315 8.32629 38.2347 0 0 -0
1031 4 21.0545 8.37701 38.2629 0 -0 0
1023 4 18.4387 8.57266 35.9159 0 -0 0
1024 4 18.7453 9.25 37.2706 0 -0 -0
1025 4 17.4247 9.38757 35.0754 -0 -0 -0
1029 4 17.1795 8.71541 33.7036 -0 -0 0
1032 4 16.2709 9.55748 32.7889 0 -0 -0
1047 5 19.3564 8.48339 35.3346 0 0 0
1048 5 17.7751 9.49844 37.701 -0 -0 -0
1049 5 19.2716 10.1811 37.0603 -0 -0 -0
1050 5 16.4585 9.47153 35.573 -0 0 -0
1051 5 17.8156 10.3868 34.8836 -0 -0 0
1058 5 18.114 8.53098 33.1737 -0 -0 0
37 1 0 16.17 0 0 -0 -0
38 2 1.90565 17.5175 0 -0 0 -0
39 1 3.81131 16.17 3.81131 -0 0 -0
40 2 5.71696 17.5175 3.81131 0 -0 0
49 1 0 21.56 0 -0 0 -0
50 2 1.90565 22.9075 0 -0 -0 -0
51 1 3.81131 21.56 3.81131 -0 -0 0
52 2 5.71696 22.9075 3.81131 -0 0 -0
109 1 7.62261 16.17 0 0 0 0
121 1 7.62261 21.56 0 -0 0 -0
110 2 9.52826 17.5175 0 -0 -0 -0
111 1 11.4339 16.17 3.81131 -0 -0 0
112 2 13.3396 17.5175 3.81131 -0 0 -0
122 2 9.52826 22.9075 0 -0 0 -0
123 1 11.4339 21.56 3.81131 -0 0 0
124 2 13.3396 22.9075 3.81131 -0 0 -0
181 1 15.2452 16.17 0 0 -0 0
193 1 15.2452 21.56 0 0 -0 0
928 4 13.8939 18.9666 39.7421 0 -0 -0
951 5 11.5024 19.3 39.2189 0 0 0
960 5 13.4971 18.0153 40.0964 -0 -0 0
961 5 13.5033 19.7695 40.3673 0 0 0
962 5 14.9823 18.9565 39.8004 -0 -0 -0
182 2 17.1509 17.5175 0 0 -0 -0
183 1 19.0565 16.17 3.81131 0 -0 0
184 2 20.9622 17.5175 3.81131 -0 -0 0
194 2 17.1509 22.9075 0 -0 -0 -0
195 1 19.0565 21.56 3.81131 -0 -0 -0
196 2 20.9622 22.9075 3.81131 -0 0 0
253 1 22.8678 16.17 0 0 -0 0
265 1 22.8678 21.56 0 0 -0 0
1140 4 21.5153 18.9672 39.7408 -0 -0 -0
1163 5 19.1235 19.2995 39.2196 0 -0 -0
1172 5 21.1183 18.0156 40.0943 -0 -0 0
1173 5 21.1249 19.7693 40.3671 0 -0 -0
1174 5 22.6037 18.9566 39.7985 0 -0 0
61 1 0 26.95 0 0 -0 -0
62 2 1.90565 28.2975 0 -0 -0 -0
63 1 3.81131 26.95 3.81131 0 0 -0
64 2 5.71696 28.2975 3.81131 -0 0 -0
133 1 7.62261 26.95 0 0 -0 0
134 2 9.52826 28.2975 0 0 -0 0
135 1 11.4339 26.95 3.81131 -0 -0 0
136 2 13.3396 28.2975 3.81131 0 0 -0
205 1 15.2452 26.95 0 0 -0 0
206 2 17.1509 28.2975 0 -0 0 0
207 1 19.0565 26.95 3.81131 0 -0 0
208 2 20.9622 28.2975 3.81131 0 0 -0
277 1 22.8678 26.95 0 0 -0 -0
41 1 7.62261 16.17 7.62261 -0 0 -0
42 2 1.90565 17.5175 7.62261 -0 -0 -0
43 1 3.81131 16.17 11.4339 -0 0 0
44 2 5.71696 17.5175 11.4339 0 -0 0
53 1 7.62261 21.56 7.62261 0 0 0
54 2 1.90565 22.9075 7.62261 0 0 0
55 1 3.81131 21.56 11.4339 -0 -0 0
56 2 5.71696 22.9075 11.4339 0 0 0
401 1 0 16.17 7.62261 -0 0 0
413 1 0 21.56 7.62261 -0 -0 -0
113 1 15.2452 16.17 7.62261 -0 -0 0
114 2 9.52826 17.5175 7.62261 0 0 -0
115 1 11.4339 16.17 11.4339 0 -0 -0
116 2 13.3396 17.5175 11.4339 -0 0 -0
125 1 15.2452 21.56 7.62261 0 -0 -0
126 2 9.52826 22.9075 7.62261 -0 0 0
127 1 11.4339 21.56 11.4339 0 0 0
128 2 13.3396 22.9075 11.4339 0 0 0
185 1 22.8678 16.17 7.62261 -0 0 -0
186 2 17.1509 17.5175 7.62261 0 0 -0
187 1 19.0565 16.17 11.4339 -0 0 -0
188 2 20.9622 17.5175 11.4339 -0 0 -0
197 1 22.8678 21.56 7.62261 -0 0 0
198 2 17.1509 22.9075 7.62261 -0 0 -0
199 1 19.0565 21.56 11.4339 0 0 0
200 2 20.9622 22.9075 11.4339 0 -0 0
65 1 7.62261 26.95 7.62261 0 0 0
66 2 1.90565 28.2975 7.62261 0 -0 -0
67 1 3.81131 26.95 11.4339 0 -0 0
68 2 5.71696 28.2975 11.4339 -0 -0 -0
425 1 0 26.95 7.62261 -0 0 -0
137 1 15.2452 26.95 7.62261 0 0 0
138 2 9.52826 28.2975 7.62261 0 -0 0
139 1 11.4339 26.95 11.4339 0 -0 -0
140 2 13.3396 28.2975 11.4339 -0 0 -0
209 1 22.8678 26.95 7.62261 -0 -0 0
210 2 17.1509 28.2975 7.62261 -0 0 0
211 1 19.0565 26.95 11.4339 -0 -0 -0
212 2 20.9622 28.2975 11.4339 -0 -0 -0
45 1 7.62261 16.17 15.2452 -0 0 -0
46 2 1.90565 17.5175 15.2452 -0 0 0
47 1 3.81131 16.17 19.0565 0 0 0
48 2 5.71696 17.5175 19.0565 0 -0 -0
57 1 7.62261 21.56 15.2452 0 0 -0
58 2 1.90565 22.9075 15.2452 0 0 -0
59 1 3.81131 21.56 19.0565 0 -0 0
60 2 5.71696 22.9075 19.0565 0 0 -0
405 1 0 16.17 15.2452 -0 0 -0
417 1 0 21.56 15.2452 0 0 -0
117 1 15.2452 16.17 15.2452 -0 -0 0
118 2 9.52826 17.5175 15.2452 -0 0 0
119 1 11.4339 16.17 19.0565 -0 0 -0
120 2 13.3396 17.5175 19.0565 0 -0 0
129 1 15.2452 21.56 15.2452 0 0 -0
130 2 9.52826 22.9075 15.2452 -0 -0 0
131 1 11.4339 21.56 19.0565 -0 -0 0
132 2 13.3396 22.9075 19.0565 -0 -0 0
857 3 9.61998 17.9669 18.9439 -0 0 0
858 3 8.92696 16.8545 18.8941 0 0 0
910 3 10.0883 23.8045 19.021 0 0 -0
911 3 9.16906 22.8116 18.9037 0 -0 -0
189 1 22.8678 16.17 15.2452 -0 0 0
190 2 17.1509 17.5175 15.2452 -0 0 -0
191 1 19.0565 16.17 19.0565 0 0 0
192 2 20.9622 17.5175 19.0565 -0 -0 -0
201 1 22.8678 21.56 15.2452 0 -0 0
202 2 17.1509 22.9075 15.2452 0 0 -0
203 1 19.0565 21.56 19.0565 -0 0 0
204 2 20.9622 22.9075 19.0565 0 0 -0
1069 3 17.6275 18.2907 19.042 -0 0 0
1070 3 16.7494 17.2648 18.935 -0 -0 -0
1122 3 18.0424 24.0322 19.0882 0 0 0
1123 3 17.0407 23.1431 18.9259 0 0 0
69 1 7.62261 26.95 15.2452 -0 0 -0
70 2 1.90565 28.2975 15.2452 0 0 -0
71 1 3.81131 26.95 19.0565 0 -0 0
72 2 5.71696 28.2975 19.0565 0 -0 0
429 1 0 26.95 15.2452 0 -0 0
141 1 15.2452 26.95 15.2452 -0 -0 0
142 2 9.52826 28.2975 15.2452 -0 0 0
143 1 11.4339 26.95 19.0565 0 -0 -0
144 2 13.3396 28.2975 19.0565 -0 -0 -0
213 1 22.8678 26.95 15.2452 0 -0 -0
214 2 17.1509 28.2975 15.2452 -0 0 0
215 1 19.0565 26.95 19.0565 0 -0 -0
216 2 20.9622 28.2975 19.0565 -0 -0 0
885 5 11.7793 16.4599 24.3979 -0 -0 -0
868 4 9.86192 16.8992 23.2395 -0 -0 0
876 4 9.10681 17.4701 20.3022 0 -0 -0
896 5 9.94515 17.9496 23.5186 0 0 -0
916 4 10.7887 21.6898 24.4528 0 -0 -0
921 4 9.98095 22.4756 23.2476 0 -0 0
927 4 10.2114 22.4536 21.5519 0 -0 0
929 4 9.44479 23.3275 20.3392 0 -0 0
938 5 11.8492 21.9404 24.4277 -0 -0 0
939 5 10.7375 20.6101 24.3127 -0 -0 -0
948 5 8.95228 22.1704 23.4396 -0 -0 0
949 5 10.056 23.5136 23.5714 -0 -0 -0
958 5 10.071 21.3891 21.3641 -0 0 0
959 5 11.2796 22.6674 21.5163 -0 0 -0
895 5 8.84498 16.6002 23.4935 -0 0 -0
874 4 10.0361 16.7976 21.5509 0 0 -0
906 5 11.0586 17.166 21.468 -0 -0 -0
863 4 10.7272 16.1841 24.4696 -0 0 0
1097 5 19.4736 16.5147 24.4533 0 -0 -0
1107 5 16.5664 16.7164 23.4851 0 0 -0
1086 4 17.8053 16.9863 21.5885 0 0 0
1080 4 17.5894 17.0257 23.2706 0 -0 0
1088 4 16.9897 17.8201 20.3553 -0 0 0
1108 5 17.6622 18.0644 23.5927 0 0 -0
1128 4 18.4776 21.753 24.4683 -0 -0 0
1133 4 17.7099 22.58 23.2619 -0 0 -0
1139 4 17.9874 22.6009 21.5764 0 -0 0
1141 4 17.3289 23.5819 20.3798 -0 0 0
1150 5 19.5418 21.989 24.4701 0 -0 0
1151 5 18.4134 20.6781 24.2992 0 -0 0
1160 5 16.6762 22.2701 23.4157 0 -0 -0
1161 5 17.7728 23.6085 23.6174 0 0 -0
1170 5 17.7525 21.5601 21.3532 0 -0 -0
1171 5 19.0711 22.7167 21.5615 -0 0 0
1118 5 18.8639 17.2393 21.5309 0 -0 -0
1075 4 18.4158 16.2552 24.4974 -0 0 -0
914 4 10.3738 21.8979 26.055 0 -0 0
871 4 9.23629 16.2688 32.1803 0 -0 0
860 4 10.4701 16.2637 28.8386 0 -0 -0
861 4 10.3528 16.4497 26.0601 -0 0 -0
867 4 10.676 16.3588 31.5748 -0 0 0
879 5 10.5794 17.3451 28.9204 -0 -0 0
881 5 10.4221 17.5249 26.2255 0 0 -0
893 5 10.8851 17.4218 31.4546 -0 -0 -0
901 5 8.54942 16.645 31.4222 0 -0 -0
912 4 11.058 21.2597 27.3763 0 -0 -0
913 4 10.461 21.6796 28.8312 -0 0 0
915 4 11.0303 21.0782 30.1879 -0 0 0
920 4 10.6768 21.779 31.5726 -0 -0 0
924 4 9.24651 21.6978 32.2011 0 -0 0
930 5 11.0126 20.1711 27.3456 -0 -0 -0
931 5 12.1166 21.5169 27.4135 -0 0 0
932 5 10.5613 22.7618 28.9144 0 -0 -0
933 5 9.39526 21.4508 28.8329 -0 -0 0
934 5 10.4163 22.9709 26.242 0 0 0
935 5 9.32905 21.6 26.1442 0 -0 -0
936 5 12.1177 21.1154 30.1231 -0 -0 0
937 5 10.7637 20.0248 30.2749 0 -0 -0
946 5 10.8908 22.841 31.4528 0 0 -0
954 5 8.55268 22.0857 31.4553 0 0 0
947 5 11.3766 21.4207 32.3275 0 0 0
957 5 8.36724 19.7715 31.9115 0 0 0
882 5 9.30535 16.1765 26.188 -0 0 -0
1083 4 16.8471 16.2711 32.1898 -0 -0 -0
1072 4 18.0981 16.2681 28.8565 -0 0 0
1073 4 18.0086 16.481 26.0821 0 0 -0
1079 4 18.2902 16.3613 31.5917 -0 0 -0
1091 5 18.1999 17.3499 28.9434 0 0 -0
1093 5 18.0575 17.5536 26.27 -0 0 0
1105 5 18.4981 17.4243 31.4701 0 0 -0
1113 5 16.1641 16.644 31.4265 -0 -0 -0
1124 4 18.698 21.2768 27.3865 -0 -0 0
1125 4 18.0877 21.686 28.8373 -0 -0 -0
1126 4 18.0283 21.9283 26.0623 -0 -0 0
1127 4 18.6502 21.0803 30.1959 -0 -0 0
1132 4 18.2925 21.7797 31.5796 -0 -0 -0
1136 4 16.8603 21.6984 32.2042 0 0 -0
1142 5 18.6484 20.1888 27.3448 -0 0 -0
1143 5 19.7571 21.5303 27.4338 -0 0 -0
1144 5 18.1811 22.7683 28.9262 0 0 0
1145 5 17.0232 21.4515 28.8299 0 -0 0
1146 5 18.0511 22.9985 26.2676 0 0 -0
1147 5 16.9865 21.6144 26.1281 0 -0 0
1148 5 19.7379 21.1148 30.1344 0 -0 0
1149 5 18.3802 20.0276 30.2791 0 -0 -0
1158 5 18.5059 22.842 31.4603 -0 -0 -0
1166 5 16.1685 22.0826 31.4546 0 -0 -0
1159 5 18.9903 21.4214 32.3364 -0 -0 -0
1169 5 15.975 19.7745 31.9181 -0 -0 -0
1094 5 16.9635 16.1893 26.1868 -0 0 -0
917 4 10.8278 19.3486 35.9067 -0 0 -0
918 4 11.1298 20.0216 37.2653 -0 0 0
919 4 9.82008 20.1696 35.0637 0 0 0
922 4 11.9139 19.0967 38.2302 0 0 -0
923 4 9.5814 19.5122 33.6834 -0 0 0
925 4 13.4372 19.1479 38.2629 0 0 -0
926 4 8.67648 20.3644 32.7724 0 0 0
940 5 10.4161 18.3455 36.0184 0 0 0
941 5 11.7479 19.2572 35.3295 0 -0 0
942 5 10.158 20.2671 37.6935 -0 -0 -0
943 5 11.6555 20.9544 37.0613 -0 0 -0
944 5 8.85105 20.2492 35.5564 -0 0 0
945 5 10.2124 21.1704 34.8831 0 0 -0
950 5 11.7311 18.0658 37.9273 -0 -0 0
952 5 10.5181 19.3301 33.1564 0 0 -0
953 5 9.08876 18.5481 33.8095 -0 0 0
955 5 13.8474 18.3766 37.6111 0 0 0
956 5 13.7203 20.0651 37.7464 -0 0 0
1129 4 18.4417 19.3474 35.9095 -0 0 -0
1130 4 18.7469 20.0209 37.2672 -0 -0 0
1131 4 17.4315 20.168 35.069 -0 0 -0
1134 4 19.5344 19.0972 38.2305 0 0 -0
1135 4 17.1922 19.5123 33.6879 0 0 0
1137 4 21.0576 19.1504 38.2621 0 0 0
1138 4 16.2885 20.3666 32.7779 -0 -0 0
1152 5 18.0305 18.3443 36.0222 -0 -0 0
1153 5 19.3603 19.2563 35.3299 0 -0 0
1154 5 17.7757 20.2653 37.6974 0 -0 0
1155 5 19.271 20.9543 37.0615 -0 0 -0
1156 5 16.4628 20.245 35.5628 -0 -0 -0
1157 5 17.8218 21.1696 34.889 0 -0 0
1162 5 19.3529 18.066 37.9273 0 -0 0
1164 5 18.1283 19.3297 33.1602 0 -0 0
1165 5 16.698 18.5488 33.8129 -0 -0 0
1167 5 21.4681 18.3806 37.6087 0 -0 0
1168 5 21.338 20.0692 37.7471 -0 -0 0
218 2 24.7735 1.3475 0 0 0 -0
219 1 26.6791 0 3.81131 -0 -0 0
220 2 28.5848 1.3475 3.81131 -0 -0 0
230 2 24.7735 6.7375 0 0 0 0
231 1 26.6791 5.39 3.81131 0 -0 0
232 2 28.5848 6.7375 3.81131 -0 -0 -0
289 1 30.4904 0 0 0 -0 0
301 1 30.4904 5.39 0 -0 0 -0
1193 4 29.1307 2.80368 39.7365 0 -0 -0
1216 5 26.7369 3.15837 39.2138 0 0 -0
1225 5 28.7311 1.85171 40.086 0 0 0
1226 5 28.7435 3.60423 40.3668 -0 -0 0
1227 5 30.2192 2.78854 39.7925 0 0 0
1278 5 28.7399 7.23805 40.0934 -0 0 -0
290 2 32.3961 1.3475 0 -0 0 0
291 1 34.3017 0 3.81131 -0 -0 -0
292 2 36.2074 1.3475 3.81131 -0 0 -0
302 2 32.3961 6.7375 0 -0 -0 0
303 1 34.3017 5.39 3.81131 0 -0 -0
304 2 36.2074 6.7375 3.81131 -0 -0 0
610 4 36.7496 2.80388 39.7397 0 -0 -0
633 5 34.3559 3.15949 39.2155 -0 -0 0
642 5 36.3496 1.85141 40.0875 -0 0 0
643 5 36.3624 3.60397 40.3707 -0 0 0
644 5 37.838 2.78799 39.796 0 0 -0
695 5 36.358 7.23806 40.0951 0 0 -0
361 1 38.1131 0 0 -0 0 0
362 2 40.0187 1.3475 0 0 0 -0
363 1 41.9244 0 3.81131 -0 -0 -0
364 2 43.83 1.3475 3.81131 -0 -0 0
373 1 38.1131 5.39 0 -0 0 0
374 2 40.0187 6.7375 0 0 -0 0
375 1 41.9244 5.39 3.81131 -0 -0 0
376 2 43.83 6.7375 3.81131 0 -0 -0
1246 4 29.1379 8.1897 39.7412 -0 0 -0
1279 5 28.7492 8.99143 40.3691 0 0 -0
1280 5 30.2264 8.17763 39.7972 -0 -0 -0
242 2 24.7735 12.1275 0 0 0 -0
243 1 26.6791 10.78 3.81131 0 -0 0
244 2 28.5848 12.1275 3.81131 0 -0 -0
313 1 30.4904 10.78 0 -0 0 0
504 4 29.1366 13.5798 39.7402 0 -0 0
527 5 26.7433 13.9204 39.2226 -0 0 0
536 5 28.7382 12.6281 40.0921 -0 -0 -0
537 5 28.748 14.3814 40.3682 0 0 0
538 5 30.225 13.5672 39.7964 -0 0 0
1269 5 26.7447 8.52873 39.2249 0 -0 -0
663 4 36.7563 8.19037 39.745 -0 0 -0
696 5 36.3679 8.99144 40.3739 0 -0 -0
697 5 37.8448 8.17732 39.801 0 -0 -0
314 2 32.3961 12.1275 0 -0 -0 -0
315 1 34.3017 10.78 3.81131 0 0 -0
316 2 36.2074 12.1275 3.81131 -0 0 0
686 5 34.3631 8.53065 39.2277 0 0 -0
716 4 36.7552 13.5804 39.7442 -0 0 -0
739 5 34.3619 13.9221 39.2257 0 0 -0
748 5 36.3565 12.6281 40.094 -0 0 0
749 5 36.3668 14.3814 40.3732 -0 -0 0
750 5 37.8436 13.567 39.8004 -0 0 -0
385 1 38.1131 10.78 0 0 0 -0
386 2 40.0187 12.1275 0 0 -0 -0
387 1 41.9244 10.78 3.81131 -0 -0 -0
388 2 43.83 12.1275 3.81131 0 -0 0
221 1 30.4904 0 7.62261 -0 -0 0
222 2 24.7735 1.3475 7.62261 -0 0 0
223 1 26.6791 0 11.4339 0 -0 -0
224 2 28.5848 1.3475 11.4339 -0 0 -0
233 1 30.4904 5.39 7.62261 -0 0 0
234 2 24.7735 6.7375 7.62261 -0 0 -0
235 1 26.6791 5.39 11.4339 -0 0 -0
236 2 28.5848 6.7375 11.4339 0 -0 -0
294 2 32.3961 1.3475 7.62261 0 -0 -0
295 1 34.3017 0 11.4339 -0 0 -0
296 2 36.2074 1.3475 11.4339 -0 0 0
306 2 32.3961 6.7375 7.62261 0 0 0
307 1 34.3017 5.39 11.4339 0 -0 -0
308 2 36.2074 6.7375 11.4339 0 0 0
293 1 38.1131 0 7.62261 0 0 -0
305 1 38.1131 5.39 7.62261 0 -0 -0
366 2 40.0187 1.3475 7.62261 -0 -0 0
367 1 41.9244 0 11.4339 -0 0 0
368 2 43.83 1.3475 11.4339 -0 -0 -0
378 2 40.0187 6.7375 7.62261 0 0 -0
379 1 41.9244 5.39 11.4339 -0 0 -0
380 2 43.83 6.7375 11.4339 -0 -0 0
245 1 30.4904 10.78 7.62261 -0 -0 0
246 2 24.7735 12.1275 7.62261 -0 -0 -0
247 1 26.6791 10.78 11.4339 0 -0 0
248 2 28.5848 12.1275 11.4339 -0 0 0
318 2 32.3961 12.1275 7.62261 0 -0 -0
319 1 34.3017 10.78 11.4339 -0 -0 -0
320 2 36.2074 12.1275 11.4339 -0 0 0
317 1 38.1131 10.78 7.62261 -0 -0 0
390 2 40.0187 12.1275 7.62261 0 -0 -0
391 1 41.9244 10.78 11.4339 0 -0 -0
392 2 43.83 12.1275 11.4339 0 0 0
225 1 30.4904 0 15.2452 -0 -0 -0
226 2 24.7735 1.3475 15.2452 -0 0 -0
227 1 26.6791 0 19.0565 0 -0 -0
228 2 28.5848 1.3475 19.0565 0 -0 0
237 1 30.4904 5.39 15.2452 -0 0 -0
238 2 24.7735 6.7375 15.2452 -0 0 -0
239 1 26.6791 5.39 19.0565 -0 -0 0
240 2 28.5848 6.7375 19.0565 -0 -0 -0
1175 3 24.4379 6.49437 18.9728 -0 0 -0
1176 3 24.1401 5.25274 19.0048 0 0 -0
298 2 32.3961 1.3475 15.2452 0 0 -0
299 1 34.3017 0 19.0565 -0 0 0
300 2 36.2074 1.3475 19.0565 0 -0 0
310 2 32.3961 6.7375 15.2452 0 0 -0
311 1 34.3017 5.39 19.0565 0 -0 -0
312 2 36.2074 6.7375 19.0565 0 0 -0
592 3 32.4897 7.08692 19.0915 0 0 -0
593 3 31.8475 5.90672 19.0472 0 0 0
297 1 38.1131 0 15.2452 0 0 0
309 1 38.1131 5.39 15.2452 0 0 -0
370 2 40.0187 1.3475 15.2452 0 0 -0
371 1 41.9244 0 19.0565 -0 -0 -0
372 2 43.83 1.3475 19.0565 -0 -0 -0
382 2 40.0187 6.7375 15.2452 0 0 -0
383 1 41.9244 5.39 19.0565 -0 0 -0
384 2 43.83 6.7375 19.0565 0 -0 0
249 1 30.4904 10.78 15.2452 -0 -0 -0
250 2 24.7735 12.1275 15.2452 -0 -0 0
251 1 26.6791 10.78 19.0565 0 0 -0
252 2 28.5848 12.1275 19.0565 0 -0 0
1228 3 25.1064 12.7443 19.0597 -0 0 0
1229 3 24.3071 11.6574 18.9761 0 0 -0
322 2 32.3961 12.1275 15.2452 -0 0 -0
323 1 34.3017 10.78 19.0565 -0 -0 -0
324 2 36.2074 12.1275 19.0565 0 -0 -0
645 3 33.2664 13.1041 19.1764 0 0 0
646 3 32.2467 12.2072 19.0248 0 -0 -0
321 1 38.1131 10.78 15.2452 0 -0 0
394 2 40.0187 12.1275 15.2452 -0 0 -0
395 1 41.9244 10.78 19.0565 -0 0 -0
396 2 43.83 12.1275 19.0565 0 0 -0
1181 4 25.9769 5.22383 24.5866 0 0 -0
1186 4 25.067 5.83072 23.3219 -0 -0 0
1192 4 25.198 5.60581 21.6405 -0 -0 0
1194 4 24.1033 5.96423 20.3802 -0 0 -0
1203 5 27.0184 5.52747 24.4812 0 0 0
1204 5 25.9771 4.13444 24.55 -0 0 -0
1213 5 24.06 5.5537 23.6336 -0 -0 0
1214 5 25.1505 6.89801 23.5269 -0 0 -0
1223 5 25.4062 4.53727 21.5862 0 0 -0
1224 5 26.1365 6.13715 21.4827 -0 0 -0
598 4 33.6676 5.33583 24.6056 0 0 -0
603 4 32.7979 6.03647 23.363 -0 0 0
609 4 32.9568 5.92515 21.6756 0 0 -0
611 4 31.9705 6.56891 20.4443 0 0 0
620 5 34.7188 5.61589 24.5374 -0 -0 0
621 5 33.6397 4.24976 24.5174 0 -0 -0
630 5 31.7847 5.73669 23.6306 -0 -0 -0
631 5 32.8752 7.08772 23.6405 -0 0 -0
640 5 32.9926 4.84411 21.5408 -0 -0 -0
641 5 33.9711 6.30743 21.5609 -0 0 0
515 5 26.0286 15.2146 24.3584 -0 -0 -0
534 5 25.3598 16.0322 21.3967 -0 -0 0
1234 4 26.0382 10.8065 24.5397 -0 -0 -0
1239 4 25.1941 11.5535 23.3062 -0 0 0
1245 4 25.3862 11.4914 21.6217 -0 0 -0
1247 4 24.504 12.2609 20.3856 -0 -0 -0
1256 5 27.0936 11.0734 24.4846 0 -0 0