ITEM: TIMESTEP
0
ITEM: NUMBER OF ATOMS
1280
ITEM: BOX BOUNDS pp pp pp
0.0000000000000000e+00 4.5735666000000002e+01
0.0000000000000000e+00 3.2339998999999999e+01
0.0000000000000000e+00 3.9056530000000002e+01
ITEM: ATOMS id type xu yu zu vx vy vz
1 1 0 0 0 0 0 0
2 2 1.90565 1.3475 0 0 0 0
3 1 3.81131 0 3.81131 0 0 0
4 2 5.71696 1.3475 3.81131 0 0 0
13 1 0 5.39 0 0 0 0
14 2 1.90565 6.7375 0 0 0 0
15 1 3.81131 5.39 3.81131 0 0 0
16 2 5.71696 6.7375 3.81131 0 0 0
73 1 7.62261 0 0 0 0 0
85 1 7.62261 5.39 0 0 0 0
74 2 9.52826 1.3475 0 0 0 0
75 1 11.4339 0 3.81131 0 0 0
76 2 13.3396 1.3475 3.81131 0 0 0
86 2 9.52826 6.7375 0 0 0 0
87 1 11.4339 5.39 3.81131 0 0 0
88 2 13.3396 6.7375 3.81131 0 0 0
145 1 15.2452 0 0 0 0 0
157 1 15.2452 5.39 0 0 0 0
451 4 13.8227 1.6986 39.3592 0 0 0
474 5 11.4284 2.9774 39.6582 0 0 0
483 5 13.4425 0.6754 39.4028 0 0 0
484 5 13.725 2.1485 40.35 0 0 0
485 5 14.8844 1.6595 39.105 0 0 0
822 4 13.8227 7.0886 39.3592 0 0 0
854 5 13.4425 6.0654 39.4028 0 0 0
855 5 13.725 7.5385 40.35 0 0 0
856 5 14.8844 7.0495 39.105 0 0 0
146 2 17.1509 1.3475 0 0 0 0
147 1 19.0565 0 3.81131 0 0 0
148 2 20.9622 1.3475 3.81131 0 0 0
158 2 17.1509 6.7375 0 0 0 0
159 1 19.0565 5.39 3.81131 0 0 0
160 2 20.9622 6.7375 3.81131 0 0 0
217 1 22.8678 0 0 0 0 0
229 1 22.8678 5.39 0 0 0 0
981 4 21.4454 1.6986 39.3592 0 0 0
1004 5 19.051 2.9774 39.6582 0 0 0
1013 5 21.0651 0.6754 39.4028 0 0 0
1014 5 21.3476 2.1485 40.35 0 0 0
1015 5 22.507 1.6595 39.105 0 0 0
1034 4 21.4454 7.0886 39.3592 0 0 0
1066 5 21.0651 6.0654 39.4028 0 0 0
1067 5 21.3476 7.5385 40.35 0 0 0
1068 5 22.507 7.0495 39.105 0 0 0
25 1 0 10.78 0 0 0 0
26 2 1.90565 12.1275 0 0 0 0
27 1 3.81131 10.78 3.81131 0 0 0
28 2 5.71696 12.1275 3.81131 0 0 0
97 1 7.62261 10.78 0 0 0 0
98 2 9.52826 12.1275 0 0 0 0
99 1 11.4339 10.78 3.81131 0 0 0
100 2 13.3396 12.1275 3.81131 0 0 0
169 1 15.2452 10.78 0 0 0 0
845 5 11.4284 8.3674 39.6582 0 0 0
875 4 13.8227 12.4786 39.3592 0 0 0
898 5 11.4284 13.7574 39.6582 0 0 0
907 5 13.4425 11.4554 39.4028 0 0 0
908 5 13.725 12.9285 40.35 0 0 0
909 5 14.8844 12.4395 39.105 0 0 0
170 2 17.1509 12.1275 0 0 0 0
171 1 19.0565 10.78 3.81131 0 0 0
172 2 20.9622 12.1275 3.81131 0 0 0
241 1 22.8678 10.78 0 0 0 0
1057 5 19.051 8.3674 39.6582 0 0 0
1087 4 21.4454 12.4786 39.3592 0 0 0
1110 5 19.051 13.7574 39.6582 0 0 0
1119 5 21.0651 11.4554 39.4028 0 0 0
1120 5 21.3476 12.9285 40.35 0 0 0
1121 5 22.507 12.4395 39.105 0 0 0
5 1 7.62261 0 7.62261 0 0 0
6 2 1.90565 1.3475 7.62261 0 0 0
7 1 3.81131 0 11.4339 0 0 0
8 2 5.71696 1.3475 11.4339 0 0 0
17 1 7.62261 5.39 7.62261 0 0 0
18 2 1.90565 6.7375 7.62261 0 0 0
19 1 3.81131 5.39 11.4339 0 0 0
20 2 5.71696 6.7375 11.4339 0 0 0
365 1 0 0 7.62261 0 0 0
377 1 0 5.39 7.62261 0 0 0
77 1 15.2452 0 7.62261 0 0 0
78 2 9.52826 1.3475 7.62261 0 0 0
79 1 11.4339 0 11.4339 0 0 0
80 2 13.3396 1.3475 11.4339 0 0 0
89 1 15.2452 5.39 7.62261 0 0 0
90 2 9.52826 6.7375 7.62261 0 0 0
91 1 11.4339 5.39 11.4339 0 0 0
92 2 13.3396 6.7375 11.4339 0 0 0
149 1 22.8678 0 7.62261 0 0 0
150 2 17.1509 1.3475 7.62261 0 0 0
151 1 19.0565 0 11.4339 0 0 0
152 2 20.9622 1.3475 11.4339 0 0 0
161 1 22.8678 5.39 7.62261 0 0 0
162 2 17.1509 6.7375 7.62261 0 0 0
163 1 19.0565 5.39 11.4339 0 0 0
164 2 20.9622 6.7375 11.4339 0 0 0
29 1 7.62261 10.78 7.62261 0 0 0
30 2 1.90565 12.1275 7.62261 0 0 0
31 1 3.81131 10.78 11.4339 0 0 0
32 2 5.71696 12.1275 11.4339 0 0 0
389 1 0 10.78 7.62261 0 0 0
101 1 15.2452 10.78 7.62261 0 0 0
102 2 9.52826 12.1275 7.62261 0 0 0
103 1 11.4339 10.78 11.4339 0 0 0
104 2 13.3396 12.1275 11.4339 0 0 0
173 1 22.8678 10.78 7.62261 0 0 0
174 2 17.1509 12.1275 7.62261 0 0 0
175 1 19.0565 10.78 11.4339 0 0 0
176 2 20.9622 12.1275 11.4339 0 0 0
9 1 7.62261 0 15.2452 0 0 0
10 2 1.90565 1.3475 15.2452 0 0 0
11 1 3.81131 0 19.0565 0 0 0
12 2 5.71696 1.3475 19.0565 0 0 0
21 1 7.62261 5.39 15.2452 0 0 0
22 2 1.90565 6.7375 15.2452 0 0 0
23 1 3.81131 5.39 19.0565 0 0 0
24 2 5.71696 6.7375 19.0565 0 0 0
369 1 0 0 15.2452 0 0 0
381 1 0 5.39 15.2452 0 0 0
81 1 15.2452 0 15.2452 0 0 0
82 2 9.52826 1.3475 15.2452 0 0 0
83 1 11.4339 0 19.0565 0 0 0
84 2 13.3396 1.3475 19.0565 0 0 0
93 1 15.2452 5.39 15.2452 0 0 0
94 2 9.52826 6.7375 15.2452 0 0 0
95 1 11.4339 5.39 19.0565 0 0 0
96 2 13.3396 6.7375 19.0565 0 0 0
153 1 22.8678 0 15.2452 0 0 0
154 2 17.1509 1.3475 15.2452 0 0 0
155 1 19.0565 0 19.0565 0 0 0
156 2 20.9622 1.3475 19.0565 0 0 0
165 1 22.8678 5.39 15.2452 0 0 0
166 2 17.1509 6.7375 15.2452 0 0 0
167 1 19.0565 5.39 19.0565 0 0 0
168 2 20.9622 6.7375 19.0565 0 0 0
33 1 7.62261 10.78 15.2452 0 0 0
34 2 1.90565 12.1275 15.2452 0 0 0
35 1 3.81131 10.78 19.0565 0 0 0
36 2 5.71696 12.1275 19.0565 0 0 0
393 1 0 10.78 15.2452 0 0 0
105 1 15.2452 10.78 15.2452 0 0 0
106 2 9.52826 12.1275 15.2452 0 0 0
107 1 11.4339 10.78 19.0565 0 0 0
108 2 13.3396 12.1275 19.0565 0 0 0
177 1 22.8678 10.78 15.2452 0 0 0
178 2 17.1509 12.1275 15.2452 0 0 0
179 1 19.0565 10.78 19.0565 0 0 0
180 2 20.9622 12.1275 19.0565 0 0 0
433 3 11.4339 5.39 20.7565 0 0 0
434 3 9.5402 5.9836 21.7282 0 0 0
439 4 11.2881 4.9729 25.6232 0 0 0
444 4 10.6169 5.54 24.3541 0 0 0
450 4 11.3031 5.019 23.0721 0 0 0
452 4 10.6896 5.5964 21.8099 0 0 0
461 5 12.3436 5.2566 25.6351 0 0 0
462 5 11.2401 3.8806 25.6054 0 0 0
471 5 9.5609 5.2554 24.3445 0 0 0
472 5 10.6644 6.6314 24.3719 0 0 0
481 5 11.2357 3.9288 23.0306 0 0 0
482 5 12.3653 5.2769 23.1004 0 0 0
963 3 19.0565 5.39 20.7565 0 0 0
964 3 17.1629 5.9836 21.7282 0 0 0
969 4 18.9107 4.9729 25.6232 0 0 0
974 4 18.2395 5.54 24.3541 0 0 0
980 4 18.9257 5.019 23.0721 0 0 0
982 4 18.3122 5.5964 21.8099 0 0 0
991 5 19.9662 5.2566 25.6351 0 0 0
992 5 18.8627 3.8806 25.6054 0 0 0
1001 5 17.1836 5.2554 24.3445 0 0 0
1002 5 18.2871 6.6314 24.3719 0 0 0
1011 5 18.8583 3.9288 23.0306 0 0 0
1012 5 19.9879 5.2769 23.1004 0 0 0
804 3 11.4339 10.78 20.7565 0 0 0
805 3 9.5402 11.3736 21.7282 0 0 0
810 4 11.2881 10.3629 25.6232 0 0 0
815 4 10.6169 10.93 24.3541 0 0 0
821 4 11.3031 10.409 23.0721 0 0 0
823 4 10.6896 10.9864 21.8099 0 0 0
832 5 12.3436 10.6466 25.6351 0 0 0
833 5 11.2401 9.2706 25.6054 0 0 0
842 5 9.5609 10.6454 24.3445 0 0 0
843 5 10.6644 12.0214 24.3719 0 0 0
852 5 11.2357 9.3188 23.0306 0 0 0
853 5 12.3653 10.6669 23.1004 0 0 0
863 4 11.2881 15.7529 25.6232 0 0 0
874 4 11.3031 15.799 23.0721 0 0 0
885 5 12.3436 16.0366 25.6351 0 0 0
886 5 11.2401 14.6606 25.6054 0 0 0
895 5 9.5609 16.0354 24.3445 0 0 0
905 5 11.2357 14.7088 23.0306 0 0 0
906 5 12.3653 16.0569 23.1004 0 0 0
1016 3 19.0565 10.78 20.7565 0 0 0
1017 3 17.1629 11.3736 21.7282 0 0 0
1022 4 18.9107 10.3629 25.6232 0 0 0
1027 4 18.2395 10.93 24.3541 0 0 0
1033 4 18.9257 10.409 23.0721 0 0 0
1035 4 18.3122 10.9864 21.8099 0 0 0
1044 5 19.9662 10.6466 25.6351 0 0 0
1045 5 18.8627 9.2706 25.6054 0 0 0
1054 5 17.1836 10.6454 24.3445 0 0 0
1055 5 18.2871 12.0214 24.3719 0 0 0
1064 5 18.8583 9.3188 23.0306 0 0 0
1065 5 19.9879 10.6669 23.1004 0 0 0
1075 4 18.9107 15.7529 25.6232 0 0 0
1086 4 18.9257 15.799 23.0721 0 0 0
1097 5 19.9662 16.0366 25.6351 0 0 0
1098 5 18.8627 14.6606 25.6054 0 0 0
1107 5 17.1836 16.0354 24.3445 0 0 0
1117 5 18.8583 14.7088 23.0306 0 0 0
1118 5 19.9879 16.0569 23.1004 0 0 0
435 4 11.2771 4.9437 28.1713 0 0 0
436 4 10.5907 5.4805 29.4453 0 0 0
437 4 10.6004 5.4979 26.9003 0 0 0
438 4 11.2771 4.9437 30.7214 0 0 0
443 4 10.6573 5.5287 32.0093 0 0 0
447 4 9.2217 5.0786 32.2124 0 0 0
453 5 11.2307 3.8517 28.1642 0 0 0
454 5 12.3319 5.2301 28.1778 0 0 0
455 5 10.6285 6.5724 29.4452 0 0 0
456 5 9.5388 5.1849 29.4387 0 0 0
457 5 10.6415 6.5904 26.9127 0 0 0
458 5 9.5459 5.2081 26.8924 0 0 0
459 5 12.3378 5.205 30.6946 0 0 0
460 5 11.2123 3.8528 30.7482 0 0 0
469 5 10.6947 6.62 31.9711 0 0 0
477 5 8.4811 5.6302 31.6384 0 0 0
965 4 18.8997 4.9437 28.1713 0 0 0
966 4 18.2133 5.4805 29.4453 0 0 0
967 4 18.223 5.4979 26.9003 0 0 0
968 4 18.8997 4.9437 30.7214 0 0 0
973 4 18.2799 5.5287 32.0093 0 0 0
977 4 16.8443 5.0786 32.2124 0 0 0
983 5 18.8533 3.8517 28.1642 0 0 0
984 5 19.9545 5.2301 28.1778 0 0 0
985 5 18.2511 6.5724 29.4452 0 0 0
986 5 17.1614 5.1849 29.4387 0 0 0
987 5 18.2641 6.5904 26.9127 0 0 0
988 5 17.1685 5.2081 26.8924 0 0 0
989 5 19.9604 5.205 30.6946 0 0 0
990 5 18.8349 3.8528 30.7482 0 0 0
999 5 18.3173 6.62 31.9711 0 0 0
1007 5 16.1037 5.6302 31.6384 0 0 0
806 4 11.2771 10.3337 28.1713 0 0 0
807 4 10.5907 10.8705 29.4453 0 0 0
808 4 10.6004 10.8879 26.9003 0 0 0
809 4 11.2771 10.3337 30.7214 0 0 0
814 4 10.6573 10.9187 32.0093 0 0 0
818 4 9.2217 10.4686 32.2124 0 0 0
824 5 11.2307 9.2417 28.1642 0 0 0
825 5 12.3319 10.6201 28.1778 0 0 0
826 5 10.6285 11.9624 29.4452 0 0 0
827 5 9.5388 10.5749 29.4387 0 0 0
828 5 10.6415 11.9804 26.9127 0 0 0
829 5 9.5459 10.5981 26.8924 0 0 0
830 5 12.3378 10.595 30.6946 0 0 0
831 5 11.2123 9.2428 30.7482 0 0 0
840 5 10.6947 12.01 31.9711 0 0 0
848 5 8.4811 11.0202 31.6384 0 0 0
859 4 11.2771 15.7237 28.1713 0 0 0
862 4 11.2771 15.7237 30.7214 0 0 0
871 4 9.2217 15.8586 32.2124 0 0 0
877 5 11.2307 14.6317 28.1642 0 0 0
878 5 12.3319 16.0101 28.1778 0 0 0
880 5 9.5388 15.9649 29.4387 0 0 0
882 5 9.5459 15.9881 26.8924 0 0 0
883 5 12.3378 15.985 30.6946 0 0 0
884 5 11.2123 14.6328 30.7482 0 0 0
1018 4 18.8997 10.3337 28.1713 0 0 0
1019 4 18.2133 10.8705 29.4453 0 0 0
1020 4 18.223 10.8879 26.9003 0 0 0
1021 4 18.8997 10.3337 30.7214 0 0 0
1026 4 18.2799 10.9187 32.0093 0 0 0
1030 4 16.8443 10.4686 32.2124 0 0 0
1036 5 18.8533 9.2417 28.1642 0 0 0
1037 5 19.9545 10.6201 28.1778 0 0 0
1038 5 18.2511 11.9624 29.4452 0 0 0
1039 5 17.1614 10.5749 29.4387 0 0 0
1040 5 18.2641 11.9804 26.9127 0 0 0
1041 5 17.1685 10.5981 26.8924 0 0 0
1042 5 19.9604 10.595 30.6946 0 0 0
1043 5 18.8349 9.2428 30.7482 0 0 0
1052 5 18.3173 12.01 31.9711 0 0 0
1060 5 16.1037 11.0202 31.6384 0 0 0
1071 4 18.8997 15.7237 28.1713 0 0 0
1074 4 18.8997 15.7237 30.7214 0 0 0
1083 4 16.8443 15.8586 32.2124 0 0 0
1089 5 18.8533 14.6317 28.1642 0 0 0
1090 5 19.9545 16.0101 28.1778 0 0 0
1092 5 17.1614 15.9649 29.4387 0 0 0
1094 5 17.1685 15.9881 26.8924 0 0 0
1095 5 19.9604 15.985 30.6946 0 0 0
1096 5 18.8349 14.6328 30.7482 0 0 0
440 4 10.662 2.9227 36.2469 0 0 0
441 4 10.7533 3.4973 37.679 0 0 0
442 4 9.7728 3.8102 35.3503 0 0 0
445 4 11.5468 2.5878 38.6446 0 0 0
446 4 9.6821 3.2521 33.9161 0 0 0
448 4 13.054 2.5205 38.3085 0 0 0
449 4 8.8043 4.1303 33.0467 0 0 0
463 5 10.2468 1.9126 36.2843 0 0 0
464 5 11.6587 2.8561 35.8064 0 0 0
465 5 9.7427 3.6193 38.0757 0 0 0
466 5 11.2091 4.4905 37.6523 0 0 0
467 5 8.7695 3.8747 35.7783 0 0 0
468 5 10.1832 4.8227 35.3192 0 0 0
470 5 11.2783 5.2358 32.8579 0 0 0
473 5 11.1199 1.5815 38.6369 0 0 0
475 5 10.6861 3.1638 33.4946 0 0 0
476 5 9.2665 2.2412 33.9401 0 0 0
478 5 13.2034 2.0648 37.3277 0 0 0
479 5 13.4684 3.531 38.2707 0 0 0
480 5 7.7391 3.9223 33.1113 0 0 0
816 4 11.5468 7.9778 38.6446 0 0 0
819 4 13.054 7.9105 38.3085 0 0 0
834 5 10.2468 7.3026 36.2843 0 0 0
844 5 11.1199 6.9715 38.6369 0 0 0
847 5 9.2665 7.6312 33.9401 0 0 0
849 5 13.2034 7.4548 37.3277 0 0 0
970 4 18.2846 2.9227 36.2469 0 0 0
971 4 18.3759 3.4973 37.679 0 0 0
972 4 17.3954 3.8102 35.3503 0 0 0
975 4 19.1694 2.5878 38.6446 0 0 0
976 4 17.3048 3.2521 33.9161 0 0 0
978 4 20.6766 2.5205 38.3085 0 0 0
979 4 16.4269 4.1303 33.0467 0 0 0
993 5 17.8694 1.9126 36.2843 0 0 0
994 5 19.2813 2.8561 35.8064 0 0 0
995 5 17.3653 3.6193 38.0757 0 0 0
996 5 18.8317 4.4905 37.6523 0 0 0
997 5 16.3921 3.8747 35.7783 0 0 0
998 5 17.8058 4.8227 35.3192 0 0 0
1000 5 18.9009 5.2358 32.8579 0 0 0
1003 5 18.7425 1.5815 38.6369 0 0 0
1005 5 18.3087 3.1638 33.4946 0 0 0
1006 5 16.8891 2.2412 33.9401 0 0 0
1008 5 20.826 2.0648 37.3277 0 0 0
1009 5 21.091 3.531 38.2707 0 0 0
1010 5 15.3617 3.9223 33.1113 0 0 0
1028 4 19.1694 7.9778 38.6446 0 0 0
1031 4 20.6766 7.9105 38.3085 0 0 0
1046 5 17.8694 7.3026 36.2843 0 0 0
1056 5 18.7425 6.9715 38.6369 0 0 0
1059 5 16.8891 7.6312 33.9401 0 0 0
1061 5 20.826 7.4548 37.3277 0 0 0
811 4 10.662 8.3127 36.2469 0 0 0
812 4 10.7533 8.8873 37.679 0 0 0
813 4 9.7728 9.2002 35.3503 0 0 0
817 4 9.6821 8.6421 33.9161 0 0 0
820 4 8.8043 9.5203 33.0467 0 0 0
835 5 11.6587 8.2461 35.8064 0 0 0
836 5 9.7427 9.0093 38.0757 0 0 0
837 5 11.2091 9.8805 37.6523 0 0 0
838 5 8.7695 9.2647 35.7783 0 0 0
839 5 10.1832 10.2127 35.3192 0 0 0
841 5 11.2783 10.6258 32.8579 0 0 0
846 5 10.6861 8.5538 33.4946 0 0 0
850 5 13.4684 8.921 38.2707 0 0 0
851 5 7.7391 9.3123 33.1113 0 0 0
864 4 10.662 13.7027 36.2469 0 0 0
865 4 10.7533 14.2773 37.679 0 0 0
866 4 9.7728 14.5902 35.3503 0 0 0
869 4 11.5468 13.3678 38.6446 0 0 0
870 4 9.6821 14.0321 33.9161 0 0 0
872 4 13.054 13.3005 38.3085 0 0 0
873 4 8.8043 14.9103 33.0467 0 0 0
887 5 10.2468 12.6926 36.2843 0 0 0
888 5 11.6587 13.6361 35.8064 0 0 0
889 5 9.7427 14.3993 38.0757 0 0 0
890 5 11.2091 15.2705 37.6523 0 0 0
891 5 8.7695 14.6547 35.7783 0 0 0
892 5 10.1832 15.6027 35.3192 0 0 0
894 5 11.2783 16.0158 32.8579 0 0 0
897 5 11.1199 12.3615 38.6369 0 0 0
899 5 10.6861 13.9438 33.4946 0 0 0
900 5 9.2665 13.0212 33.9401 0 0 0
902 5 13.2034 12.8448 37.3277 0 0 0
903 5 13.4684 14.311 38.2707 0 0 0
904 5 7.7391 14.7023 33.1113 0 0 0
1023 4 18.2846 8.3127 36.2469 0 0 0
1024 4 18.3759 8.8873 37.679 0 0 0
1025 4 17.3954 9.2002 35.3503 0 0 0
1029 4 17.3048 8.6421 33.9161 0 0 0
1032 4 16.4269 9.5203 33.0467 0 0 0
1047 5 19.2813 8.2461 35.8064 0 0 0
1048 5 17.3653 9.0093 38.0757 0 0 0
1049 5 18.8317 9.8805 37.6523 0 0 0
1050 5 16.3921 9.2647 35.7783 0 0 0
1051 5 17.8058 10.2127 35.3192 0 0 0
1053 5 18.9009 10.6258 32.8579 0 0 0
1058 5 18.3087 8.5538 33.4946 0 0 0
1062 5 21.091 8.921 38.2707 0 0 0
1063 5 15.3617 9.3123 33.1113 0 0 0
1076 4 18.2846 13.7027 36.2469 0 0 0
1077 4 18.3759 14.2773 37.679 0 0 0
1078 4 17.3954 14.5902 35.3503 0 0 0
1081 4 19.1694 13.3678 38.6446 0 0 0
1082 4 17.3048 14.0321 33.9161 0 0 0
1084 4 20.6766 13.3005 38.3085 0 0 0
1085 4 16.4269 14.9103 33.0467 0 0 0
1099 5 17.8694 12.6926 36.2843 0 0 0
1100 5 19.2813 13.6361 35.8064 0 0 0
1101 5 17.3653 14.3993 38.0757 0 0 0
1102 5 18.8317 15.2705 37.6523 0 0 0
1103 5 16.3921 14.6547 35.7783 0 0 0
1104 5 17.8058 15.6027 35.3192 0 0 0
1106 5 18.9009 16.0158 32.8579 0 0 0
1109 5 18.7425 12.3615 38.6369 0 0 0
1111 5 18.3087 13.9438 33.4946 0 0 0
1112 5 16.8891 13.0212 33.9401 0 0 0
1114 5 20.826 12.8448 37.3277 0 0 0
1115 5 21.091 14.311 38.2707 0 0 0
1116 5 15.3617 14.7023 33.1113 0 0 0
37 1 0 16.17 0 0 0 0
38 2 1.90565 17.5175 0 0 0 0
39 1 3.81131 16.17 3.81131 0 0 0
40 2 5.71696 17.5175 3.81131 0 0 0
49 1 0 21.56 0 0 0 0
50 2 1.90565 22.9075 0 0 0 0
51 1 3.81131 21.56 3.81131 0 0 0
52 2 5.71696 22.9075 3.81131 0 0 0
109 1 7.62261 16.17 0 0 0 0
121 1 7.62261 21.56 0 0 0 0
110 2 9.52826 17.5175 0 0 0 0
111 1 11.4339 16.17 3.81131 0 0 0
112 2 13.3396 17.5175 3.81131 0 0 0
122 2 9.52826 22.9075 0 0 0 0
123 1 11.4339 21.56 3.81131 0 0 0
124 2 13.3396 22.9075 3.81131 0 0 0
181 1 15.2452 16.17 0 0 0 0
193 1 15.2452 21.56 0 0 0 0
928 4 13.8227 17.8686 39.3592 0 0 0
951 5 11.4284 19.1474 39.6582 0 0 0
960 5 13.4425 16.8454 39.4028 0 0 0
961 5 13.725 18.3185 40.35 0 0 0
962 5 14.8844 17.8295 39.105 0 0 0
182 2 17.1509 17.5175 0 0 0 0
183 1 19.0565 16.17 3.81131 0 0 0
184 2 20.9622 17.5175 3.81131 0 0 0
194 2 17.1509 22.9075 0 0 0 0
195 1 19.0565 21.56 3.81131 0 0 0
196 2 20.9622 22.9075 3.81131 0 0 0
253 1 22.8678 16.17 0 0 0 0
265 1 22.8678 21.56 0 0 0 0
1140 4 21.4454 17.8686 39.3592 0 0 0
1163 5 19.051 19.1474 39.6582 0 0 0
1172 5 21.0651 16.8454 39.4028 0 0 0
1173 5 21.3476 18.3185 40.35 0 0 0
1174 5 22.507 17.8295 39.105 0 0 0
61 1 0 26.95 0 0 0 0
62 2 1.90565 28.2975 0 0 0 0
63 1 3.81131 26.95 3.81131 0 0 0
64 2 5.71696 28.2975 3.81131 0 0 0
133 1 7.62261 26.95 0 0 0 0
134 2 9.52826 28.2975 0 0 0 0
135 1 11.4339 26.95 3.81131 0 0 0
136 2 13.3396 28.2975 3.81131 0 0 0
205 1 15.2452 26.95 0 0 0 0
206 2 17.1509 28.2975 0 0 0 0
207 1 19.0565 26.95 3.81131 0 0 0
208 2 20.9622 28.2975 3.81131 0 0 0
277 1 22.8678 26.95 0 0 0 0
41 1 7.62261 16.17 7.62261 0 0 0
42 2 1.90565 17.5175 7.62261 0 0 0
43 1 3.81131 16.17 11.4339 0 0 0
44 2 5.71696 17.5175 11.4339 0 0 0
53 1 7.62261 21.56 7.62261 0 0 0
54 2 1.90565 22.9075 7.62261 0 0 0
55 1 3.81131 21.56 11.4339 0 0 0
56 2 5.71696 22.9075 11.4339 0 0 0
401 1 0 16.17 7.62261 0 0 0
413 1 0 21.56 7.62261 0 0 0
113 1 15.2452 16.17 7.62261 0 0 0
114 2 9.52826 17.5175 7.62261 0 0 0
115 1 11.4339 16.17 11.4339 0 0 0
116 2 13.3396 17.5175 11.4339 0 0 0
125 1 15.2452 21.56 7.62261 0 0 0
126 2 9.52826 22.9075 7.62261 0 0 0
127 1 11.4339 21.56 11.4339 0 0 0
128 2 13.3396 22.9075 11.4339 0 0 0
185 1 22.8678 16.17 7.62261 0 0 0
186 2 17.1509 17.5175 7.62261 0 0 0
187 1 19.0565 16.17 11.4339 0 0 0
188 2 20.9622 17.5175 11.4339 0 0 0
197 1 22.8678 21.56 7.62261 0 0 0
198 2 17.1509 22.9075 7.62261 0 0 0
199 1 19.0565 21.56 11.4339 0 0 0
200 2 20.9622 22.9075 11.4339 0 0 0
65 1 7.62261 26.95 7.62261 0 0 0
66 2 1.90565 28.2975 7.62261 0 0 0
67 1 3.81131 26.95 11.4339 0 0 0
68 2 5.71696 28.2975 11.4339 0 0 0
425 1 0 26.95 7.62261 0 0 0
137 1 15.2452 26.95 7.62261 0 0 0
138 2 9.52826 28.2975 7.62261 0 0 0
139 1 11.4339 26.95 11.4339 0 0 0
140 2 13.3396 28.2975 11.4339 0 0 0
209 1 22.8678 26.95 7.62261 0 0 0
210 2 17.1509 28.2975 7.62261 0 0 0
211 1 19.0565 26.95 11.4339 0 0 0
212 2 20.9622 28.2975 11.4339 0 0 0
45 1 7.62261 16.17 15.2452 0 0 0
46 2 1.90565 17.5175 15.2452 0 0 0
47 1 3.81131 16.17 19.0565 0 0 0
48 2 5.71696 17.5175 19.0565 0 0 0
57 1 7.62261 21.56 15.2452 0 0 0
58 2 1.90565 22.9075 15.2452 0 0 0
59 1 3.81131 21.56 19.0565 0 0 0
60 2 5.71696 22.9075 19.0565 0 0 0
405 1 0 16.17 15.2452 0 0 0
417 1 0 21.56 15.2452 0 0 0
117 1 15.2452 16.17 15.2452 0 0 0
118 2 9.52826 17.5175 15.2452 0 0 0
119 1 11.4339 16.17 19.0565 0 0 0
120 2 13.3396 17.5175 19.0565 0 0 0
129 1 15.2452 21.56 15.2452 0 0 0
130 2 9.52826 22.9075 15.2452 0 0 0
131 1 11.4339 21.56 19.0565 0 0 0
132 2 13.3396 22.9075 19.0565 0 0 0
189 1 22.8678 16.17 15.2452 0 0 0
190 2 17.1509 17.5175 15.2452 0 0 0
191 1 19.0565 16.17 19.0565 0 0 0
192 2 20.9622 17.5175 19.0565 0 0 0
201 1 22.8678 21.56 15.2452 0 0 0
202 2 17.1509 22.9075 15.2452 0 0 0
203 1 19.0565 21.56 19.0565 0 0 0
204 2 20.9622 22.9075 19.0565 0 0 0
69 1 7.62261 26.95 15.2452 0 0 0
70 2 1.90565 28.2975 15.2452 0 0 0
71 1 3.81131 26.95 19.0565 0 0 0
72 2 5.71696 28.2975 19.0565 0 0 0
429 1 0 26.95 15.2452 0 0 0
141 1 15.2452 26.95 15.2452 0 0 0
142 2 9.52826 28.2975 15.2452 0 0 0
143 1 11.4339 26.95 19.0565 0 0 0
144 2 13.3396 28.2975 19.0565 0 0 0
213 1 22.8678 26.95 15.2452 0 0 0
214 2 17.1509 28.2975 15.2452 0 0 0
215 1 19.0565 26.95 19.0565 0 0 0
216 2 20.9622 28.2975 19.0565 0 0 0
857 3 11.4339 16.17 20.7565 0 0 0
858 3 9.5402 16.7636 21.7282 0 0 0
868 4 10.6169 16.32 24.3541 0 0 0
876 4 10.6896 16.3764 21.8099 0 0 0
896 5 10.6644 17.4114 24.3719 0 0 0
910 3 11.4339 21.56 20.7565 0 0 0
911 3 9.5402 22.1536 21.7282 0 0 0
916 4 11.2881 21.1429 25.6232 0 0 0
921 4 10.6169 21.71 24.3541 0 0 0
927 4 11.3031 21.189 23.0721 0 0 0
929 4 10.6896 21.7664 21.8099 0 0 0
938 5 12.3436 21.4266 25.6351 0 0 0
939 5 11.2401 20.0506 25.6054 0 0 0
948 5 9.5609 21.4254 24.3445 0 0 0
949 5 10.6644 22.8014 24.3719 0 0 0
958 5 11.2357 20.0988 23.0306 0 0 0
959 5 12.3653 21.4469 23.1004 0 0 0
1069 3 19.0565 16.17 20.7565 0 0 0
1070 3 17.1629 16.7636 21.7282 0 0 0
1080 4 18.2395 16.32 24.3541 0 0 0
1088 4 18.3122 16.3764 21.8099 0 0 0
1108 5 18.2871 17.4114 24.3719 0 0 0
1122 3 19.0565 21.56 20.7565 0 0 0
1123 3 17.1629 22.1536 21.7282 0 0 0
1128 4 18.9107 21.1429 25.6232 0 0 0
1133 4 18.2395 21.71 24.3541 0 0 0
1139 4 18.9257 21.189 23.0721 0 0 0
1141 4 18.3122 21.7664 21.8099 0 0 0
1150 5 19.9662 21.4266 25.6351 0 0 0
1151 5 18.8627 20.0506 25.6054 0 0 0
1160 5 17.1836 21.4254 24.3445 0 0 0
1161 5 18.2871 22.8014 24.3719 0 0 0
1170 5 18.8583 20.0988 23.0306 0 0 0
1171 5 19.9879 21.4469 23.1004 0 0 0
860 4 10.5907 16.2605 29.4453 0 0 0
861 4 10.6004 16.2779 26.9003 0 0 0
867 4 10.6573 16.3087 32.0093 0 0 0
879 5 10.6285 17.3524 29.4452 0 0 0
881 5 10.6415 17.3704 26.9127 0 0 0
893 5 10.6947 17.4 31.9711 0 0 0
901 5 8.4811 16.4102 31.6384 0 0 0
912 4 11.2771 21.1137 28.1713 0 0 0
913 4 10.5907 21.6505 29.4453 0 0 0
914 4 10.6004 21.6679 26.9003 0 0 0
915 4 11.2771 21.1137 30.7214 0 0 0
920 4 10.6573 21.6987 32.0093 0 0 0
924 4 9.2217 21.2486 32.2124 0 0 0
930 5 11.2307 20.0217 28.1642 0 0 0
931 5 12.3319 21.4001 28.1778 0 0 0
932 5 10.6285 22.7424 29.4452 0 0 0
933 5 9.5388 21.3549 29.4387 0 0 0
934 5 10.6415 22.7604 26.9127 0 0 0
935 5 9.5459 21.3781 26.8924 0 0 0
936 5 12.3378 21.375 30.6946 0 0 0
937 5 11.2123 20.0228 30.7482 0 0 0
946 5 10.6947 22.79 31.9711 0 0 0
954 5 8.4811 21.8002 31.6384 0 0 0
1072 4 18.2133 16.2605 29.4453 0 0 0
1073 4 18.223 16.2779 26.9003 0 0 0
1079 4 18.2799 16.3087 32.0093 0 0 0
1091 5 18.2511 17.3524 29.4452 0 0 0
1093 5 18.2641 17.3704 26.9127 0 0 0
1105 5 18.3173 17.4 31.9711 0 0 0
1113 5 16.1037 16.4102 31.6384 0 0 0
1124 4 18.8997 21.1137 28.1713 0 0 0
1125 4 18.2133 21.6505 29.4453 0 0 0
1126 4 18.223 21.6679 26.9003 0 0 0
1127 4 18.8997 21.1137 30.7214 0 0 0
1132 4 18.2799 21.6987 32.0093 0 0 0
1136 4 16.8443 21.2486 32.2124 0 0 0
1142 5 18.8533 20.0217 28.1642 0 0 0
1143 5 19.9545 21.4001 28.1778 0 0 0
1144 5 18.2511 22.7424 29.4452 0 0 0
1145 5 17.1614 21.3549 29.4387 0 0 0
1146 5 18.2641 22.7604 26.9127 0 0 0
1147 5 17.1685 21.3781 26.8924 0 0 0
1148 5 19.9604 21.375 30.6946 0 0 0
1149 5 18.8349 20.0228 30.7482 0 0 0
1158 5 18.3173 22.79 31.9711 0 0 0
1166 5 16.1037 21.8002 31.6384 0 0 0
917 4 10.662 19.0927 36.2469 0 0 0
918 4 10.7533 19.6673 37.679 0 0 0
919 4 9.7728 19.9802 35.3503 0 0 0
922 4 11.5468 18.7578 38.6446 0 0 0
923 4 9.6821 19.4221 33.9161 0 0 0
925 4 13.054 18.6905 38.3085 0 0 0
926 4 8.8043 20.3003 33.0467 0 0 0
940 5 10.2468 18.0826 36.2843 0 0 0
941 5 11.6587 19.0261 35.8064 0 0 0
942 5 9.7427 19.7893 38.0757 0 0 0
943 5 11.2091 20.6605 37.6523 0 0 0
944 5 8.7695 20.0447 35.7783 0 0 0
945 5 10.1832 20.9927 35.3192 0 0 0
947 5 11.2783 21.4058 32.8579 0 0 0
950 5 11.1199 17.7515 38.6369 0 0 0
952 5 10.6861 19.3338 33.4946 0 0 0
953 5 9.2665 18.4112 33.9401 0 0 0
955 5 13.2034 18.2348 37.3277 0 0 0
956 5 13.4684 19.701 38.2707 0 0 0
957 5 7.7391 20.0923 33.1113 0 0 0
1129 4 18.2846 19.0927 36.2469 0 0 0
1130 4 18.3759 19.6673 37.679 0 0 0
1131 4 17.3954 19.9802 35.3503 0 0 0
1134 4 19.1694 18.7578 38.6446 0 0 0
1135 4 17.3048 19.4221 33.9161 0 0 0
1137 4 20.6766 18.6905 38.3085 0 0 0
1138 4 16.4269 20.3003 33.0467 0 0 0
1152 5 17.8694 18.0826 36.2843 0 0 0
1153 5 19.2813 19.0261 35.8064 0 0 0
1154 5 17.3653 19.7893 38.0757 0 0 0
1155 5 18.8317 20.6605 37.6523 0 0 0
1156 5 16.3921 20.0447 35.7783 0 0 0
1157 5 17.8058 20.9927 35.3192 0 0 0
1159 5 18.9009 21.4058 32.8579 0 0 0
1162 5 18.7425 17.7515 38.6369 0 0 0
1164 5 18.3087 19.3338 33.4946 0 0 0
1165 5 16.8891 18.4112 33.9401 0 0 0
1167 5 20.826 18.2348 37.3277 0 0 0
1168 5 21.091 19.701 38.2707 0 0 0
1169 5 15.3617 20.0923 33.1113 0 0 0
218 2 24.7735 1.3475 0 0 0 0
219 1 26.6791 0 3.81131 0 0 0
220 2 28.5848 1.3475 3.81131 0 0 0
230 2 24.7735 6.7375 0 0 0 0
231 1 26.6791 5.39 3.81131 0 0 0
232 2 28.5848 6.7375 3.81131 0 0 0
289 1 30.4904 0 0 0 0 0
301 1 30.4904 5.39 0 0 0 0
1193 4 29.068 1.6986 39.3592 0 0 0
1216 5 26.6736 2.9774 39.6582 0 0 0
1225 5 28.6877 0.6754 39.4028 0 0 0
1226 5 28.9702 2.1485 40.35 0 0 0
1227 5 30.1296 1.6595 39.105 0 0 0
1246 4 29.068 7.0886 39.3592 0 0 0
1278 5 28.6877 6.0654 39.4028 0 0 0
1279 5 28.9702 7.5385 40.35 0 0 0
1280 5 30.1296 7.0495 39.105 0 0 0
290 2 32.3961 1.3475 0 0 0 0
291 1 34.3017 0 3.81131 0 0 0
292 2 36.2074 1.3475 3.81131 0 0 0
302 2 32.3961 6.7375 0 0 0 0
303 1 34.3017 5.39 3.81131 0 0 0
304 2 36.2074 6.7375 3.81131 0 0 0
610 4 36.6906 1.6986 39.3592 0 0 0
633 5 34.2963 2.9774 39.6582 0 0 0
642 5 36.3103 0.6754 39.4028 0 0 0
643 5 36.5928 2.1485 40.35 0 0 0
644 5 37.7522 1.6595 39.105 0 0 0
663 4 36.6906 7.0886 39.3592 0 0 0
695 5 36.3103 6.0654 39.4028 0 0 0
696 5 36.5928 7.5385 40.35 0 0 0
697 5 37.7522 7.0495 39.105 0 0 0
361 1 38.1131 0 0 0 0 0
362 2 40.0187 1.3475 0 0 0 0
363 1 41.9244 0 3.81131 0 0 0
364 2 43.83 1.3475 3.81131 0 0 0
373 1 38.1131 5.39 0 0 0 0
374 2 40.0187 6.7375 0 0 0 0
375 1 41.9244 5.39 3.81131 0 0 0
376 2 43.83 6.7375 3.81131 0 0 0
242 2 24.7735 12.1275 0 0 0 0
243 1 26.6791 10.78 3.81131 0 0 0
244 2 28.5848 12.1275 3.81131 0 0 0
313 1 30.4904 10.78 0 0 0 0
504 4 29.068 12.4786 39.3592 0 0 0
527 5 26.6736 13.7574 39.6582 0 0 0
536 5 28.6877 11.4554 39.4028 0 0 0
537 5 28.9702 12.9285 40.35 0 0 0
538 5 30.1296 12.4395 39.105 0 0 0
1269 5 26.6736 8.3674 39.6582 0 0 0
314 2 32.3961 12.1275 0 0 0 0
315 1 34.3017 10.78 3.81131 0 0 0
316 2 36.2074 12.1275 3.81131 0 0 0
686 5 34.2963 8.3674 39.6582 0 0 0
716 4 36.6906 12.4786 39.3592 0 0 0
739 5 34.2963 13.7574 39.6582 0 0 0
748 5 36.3103 11.4554 39.4028 0 0 0
749 5 36.5928 12.9285 40.35 0 0 0
750 5 37.7522 12.4395 39.105 0 0 0
385 1 38.1131 10.78 0 0 0 0
386 2 40.0187 12.1275 0 0 0 0
387 1 41.9244 10.78 3.81131 0 0 0
388 2 43.83 12.1275 3.81131 0 0 0
221 1 30.4904 0 7.62261 0 0 0
222 2 24.7735 1.3475 7.62261 0 0 0
223 1 26.6791 0 11.4339 0 0 0
224 2 28.5848 1.3475 11.4339 0 0 0
233 1 30.4904 5.39 7.62261 0 0 0
234 2 24.7735 6.7375 7.62261 0 0 0
235 1 26.6791 5.39 11.4339 0 0 0
236 2 28.5848 6.7375 11.4339 0 0 0
294 2 32.3961 1.3475 7.62261 0 0 0
295 1 34.3017 0 11.4339 0 0 0
296 2 36.2074 1.3475 11.4339 0 0 0
306 2 32.3961 6.7375 7.62261 0 0 0
307 1 34.3017 5.39 11.4339 0 0 0
308 2 36.2074 6.7375 11.4339 0 0 0
293 1 38.1131 0 7.62261 0 0 0
305 1 38.1131 5.39 7.62261 0 0 0
366 2 40.0187 1.3475 7.62261 0 0 0
367 1 41.9244 0 11.4339 0 0 0
368 2 43.83 1.3475 11.4339 0 0 0
378 2 40.0187 6.7375 7.62261 0 0 0
379 1 41.9244 5.39 11.4339 0 0 0
380 2 43.83 6.7375 11.4339 0 0 0
245 1 30.4904 10.78 7.62261 0 0 0
246 2 24.7735 12.1275 7.62261 0 0 0
247 1 26.6791 10.78 11.4339 0 0 0
248 2 28.5848 12.1275 11.4339 0 0 0
318 2 32.3961 12.1275 7.62261 0 0 0
319 1 34.3017 10.78 11.4339 0 0 0
320 2 36.2074 12.1275 11.4339 0 0 0
317 1 38.1131 10.78 7.62261 0 0 0
390 2 40.0187 12.1275 7.62261 0 0 0
391 1 41.9244 10.78 11.4339 0 0 0
392 2 43.83 12.1275 11.4339 0 0 0
225 1 30.4904 0 15.2452 0 0 0
226 2 24.7735 1.3475 15.2452 0 0 0
227 1 26.6791 0 19.0565 0 0 0
228 2 28.5848 1.3475 19.0565 0 0 0
237 1 30.4904 5.39 15.2452 0 0 0
238 2 24.7735 6.7375 15.2452 0 0 0
239 1 26.6791 5.39 19.0565 0 0 0
240 2 28.5848 6.7375 19.0565 0 0 0
298 2 32.3961 1.3475 15.2452 0 0 0
299 1 34.3017 0 19.0565 0 0 0
300 2 36.2074 1.3475 19.0565 0 0 0
310 2 32.3961 6.7375 15.2452 0 0 0
311 1 34.3017 5.39 19.0565 0 0 0
312 2 36.2074 6.7375 19.0565 0 0 0
297 1 38.1131 0 15.2452 0 0 0
309 1 38.1131 5.39 15.2452 0 0 0
370 2 40.0187 1.3475 15.2452 0 0 0
371 1 41.9244 0 19.0565 0 0 0
372 2 43.83 1.3475 19.0565 0 0 0
382 2 40.0187 6.7375 15.2452 0 0 0
383 1 41.9244 5.39 19.0565 0 0 0
384 2 43.83 6.7375 19.0565 0 0 0
249 1 30.4904 10.78 15.2452 0 0 0
250 2 24.7735 12.1275 15.2452 0 0 0
251 1 26.6791 10.78 19.0565 0 0 0
252 2 28.5848 12.1275 19.0565 0 0 0
322 2 32.3961 12.1275 15.2452 0 0 0
323 1 34.3017 10.78 19.0565 0 0 0
324 2 36.2074 12.1275 19.0565 0 0 0
321 1 38.1131 10.78 15.2452 0 0 0
394 2 40.0187 12.1275 15.2452 0 0 0
395 1 41.9244 10.78 19.0565 0 0 0
396 2 43.83 12.1275 19.0565 0 0 0
1175 3 26.6791 5.39 20.7565 0 0 0
1176 3 24.7855 5.9836 21.7282 0 0 0
1181 4 26.5333 4.9729 25.6232 0 0 0
1186 4 25.8621 5.54 24.3541 0 0 0
1192 4 26.5483 5.019 23.0721 0 0 0
1194 4 25.9348 5.5964 21.8099 0 0 0
1203 5 27.5888 5.2566 25.6351 0 0 0
1204 5 26.4853 3.8806 25.6054 0 0 0
1213 5 24.8062 5.2554 24.3445 0 0 0
1214 5 25.9097 6.6314 24.3719 0 0 0
1223 5 26.4809 3.9288 23.0306 0 0 0
1224 5 27.6105 5.2769 23.1004 0 0 0
592 3 34.3017 5.39 20.7565 0 0 0
593 3 32.4081 5.9836 21.7282 0 0 0
598 4 34.1559 4.9729 25.6232 0 0 0
603 4 33.4847 5.54 24.3541 0 0 0
609 4 34.171 5.019 23.0721 0 0 0
611 4 33.5574 5.5964 21.8099 0 0 0
620 5 35.2114 5.2566 25.6351 0 0 0
621 5 34.1079 3.8806 25.6054 0 0 0
630 5 32.4288 5.2554 24.3445 0 0 0
631 5 33.5323 6.6314 24.3719 0 0 0
640 5 34.1035 3.9288 23.0306 0 0 0
641 5 35.2331 5.2769 23.1004 0 0 0
492 4 26.5333 15.7529 25.6232 0 0 0
503 4 26.5483 15.799 23.0721 0 0 0
514 5 27.5888 16.0366 25.6351 0 0 0
515 5 26.4853 14.6606 25.6054 0 0 0
524 5 24.8062 16.0354 24.3445 0 0 0
534 5 26.4809 14.7088 23.0306 0 0 0
535 5 27.6105 16.0569 23.1004 0 0 0
1228 3 26.6791 10.78 20.7565 0 0 0
1229 3 24.7855 11.3736 21.7282 0 0 0
1234 4 26.5333 10.3629 25.6232 0 0 0
1239 4 25.8621 10.93 24.3541 0 0 0
1245 4 26.5483 10.409 23.0721 0 0 0
1247 4 25.9348 10.9864 21.8099 0 0 0
1256 5 27.5888 10.6466 25.6351 0 0 0
1257 5 26.4853 9.2706 25.6054 0 0 0
1266 5 24.8062 10.6454 24.3445 0 0 0
1267 5 25.9097 12.0214 24.3719 0 0 0
1276 5 26.4809 9.3188 23.0306 0 0 0
1277 5 27.6105 10.6669 23.1004 0 0 0
645 3 34.3017 10.78 20.7565 0 0 0
646 3 32.4081 11.3736 21.7282 0 0 0
651 4 34.1559 10.3629 25.6232 0 0 0
656 4 33.4847 10.93 24.3541 0 0 0
662 4 34.171 10.409 23.0721 0 0 0
664 4 33.5574 10.9864 21.8099 0 0 0
673 5 35.2114 10.6466 25.6351 0 0 0
674 5 34.1079 9.2706 25.6054 0 0 0
683 5 32.4288 10.6454 24.3445 0 0 0
684 5 33.5323 12.0214 24.3719 0 0 0
693 5 34.1035 9.3188 23.0306 0 0 0
694 5 35.2331 10.6669 23.1004 0 0 0
704 4 34.1559 15.7529 25.6232 0 0 0
715 4 34.171 15.799 23.0721 0 0 0
726 5 35.2114 16.0366 25.6351 0 0 0
727 5 34.1079 14.6606 25.6054 0 0 0
736 5 32.4288 16.0354 24.3445 0 0 0
746 5 34.1035 14.7088 23.0306 0 0 0
747 5 35.2331 16.0569 23.1004 0 0 0
1177 4 26.5223 4.9437 28.1713 0 0 0
1178 4 25.8359 5.4805 29.4453 0 0 0
1179 4 25.8457 5.4979 26.9003 0 0 0
1180 4 26.5223 4.9437 30.7214 0 0 0
1185 4 25.9025 5.5287 32.0093 0 0 0
1189 4 24.4669 5.0786 32.2124 0 0 0
1195 5 26.4759 3.8517 28.1642 0 0 0
1196 5 27.5771 5.2301 28.1778 0 0 0
1197 5 25.8737 6.5724 29.4452 0 0 0
1198 5 24.784 5.1849 29.4387 0 0 0
1199 5 25.8867 6.5904 26.9127 0 0 0
1200 5 24.7911 5.2081 26.8924 0 0 0
1201 5 27.5831 5.205 30.6946 0 0 0
1202 5 26.4575 3.8528 30.7482 0 0 0
1211 5 25.9399 6.62 31.9711 0 0 0
1219 5 23.7263 5.6302 31.6384 0 0 0