LAMMPS (8 Feb 2023)
OMP_NUM_THREADS environment is not set. Defaulting to 1 thread. (src/comm.cpp:98)
  using 1 OpenMP thread(s) per MPI task
units                real
atom_style           full
boundary             p p p
dielectric           1
special_bonds        lj/coul 0.0 0.0 1.0

pair_style           lj/charmm/coul/long/opt 9 10.00000
bond_style           harmonic
angle_style          harmonic
dihedral_style       harmonic
improper_style       umbrella
kspace_style         pppm 0.0001

read_data            data.lammps
Reading data file ...
  orthogonal box = (0 0 0) to (60 60 60)
  2 by 2 by 2 MPI processor grid
  reading atoms ...
  122 atoms
  scanning bonds ...
  4 = max bonds/atom
  scanning angles ...
  6 = max angles/atom
  scanning dihedrals ...
  15 = max dihedrals/atom
  scanning impropers ...
  3 = max impropers/atom
  reading bonds ...
  123 bonds
  reading angles ...
  228 angles
  reading dihedrals ...
  329 dihedrals
  reading impropers ...
  48 impropers
Finding 1-2 1-3 1-4 neighbors ...
  special bond factors lj:    0        0        1       
  special bond factors coul:  0        0        1       
     4 = max # of 1-2 neighbors
     8 = max # of 1-3 neighbors
    11 = max # of special neighbors
  special bonds CPU = 0.000 seconds
  read_data CPU = 0.006 seconds


pair_coeff           1 1 0.09510000 3.47299041 # C_3 C_3
pair_coeff           2 2 0.07740000 3.26256026 # N_3 N_3
pair_coeff           3 3 0.09510000 3.47299041 # C_R C_R
pair_coeff           4 4 0.09570000 3.03315369 # O_2 O_2
pair_coeff           5 5 0.34400001 3.59032202 # S_3 S_3
pair_coeff           6 6 0.01520000 2.84642134 # H_ H_
pair_coeff           7 7 0.01520000 2.84642134 # H___A H___A
pair_coeff           8 8 0.09570000 3.03315369 # O_R O_R


pair_modify          mix geometric
neighbor             2.0 multi
neigh_modify         every 2 delay 4 check yes
thermo_style         multi
thermo_modify        line multi format float %14.6f flush yes

bond_coeff           1 350 1.53000 # C_3 C_3
bond_coeff           2 350 1.09000 # C_3 H_
bond_coeff           3 350 1.46200 # N_3 C_3
bond_coeff           4 350 1.39200 # N_3 C_R
bond_coeff           5 525 1.39000 # C_R C_R
bond_coeff           6 350 1.02000 # C_R H_
bond_coeff           7 700 1.25000 # O_2 C_R
bond_coeff           8 350 1.73000 # S_3 C_R
bond_coeff           9 350 1.80000 # S_3 C_3
bond_coeff           10 350 1.36000 # S_3 H___A
bond_coeff           11 525 1.35000 # O_R C_R
bond_coeff           12 350 0.98000 # O_R H___A
bond_coeff           13 350 1.46000 # C_R C_3


angle_coeff          1 50 109.47100 # X C_3 X
angle_coeff          2 50 106.70000 # X N_3 X
angle_coeff          3 50 120 # X C_R X
angle_coeff          4 50 92.10000 # X S_3 X
angle_coeff          5 50 120 # X O_R X


dihedral_coeff       1 0.08333 -1 6 # C_R C_R C_3 X
dihedral_coeff       2 0.08333 -1 6 # O_2 C_R C_3 X
dihedral_coeff       3 0.08333 -1 6 # O_R C_R C_3 X
dihedral_coeff       4 0.11111 1 3 # X C_3 C_3 X
dihedral_coeff       5 0.16667 1 3 # X C_R C_3 X
dihedral_coeff       6 3.12500 -1 2 # X C_R C_R X
dihedral_coeff       7 0.16667 1 3 # X N_3 C_3 X
dihedral_coeff       8 0.12500 -1 6 # X N_3 C_R C_R
dihedral_coeff       9 6.25000 -1 2 # X O_R C_R X
dihedral_coeff       10 0.33333 1 3 # X S_3 C_3 X
dihedral_coeff       11 0.50000 -1 2 # X S_3 C_R X


improper_coeff       1 13.33333 0 # C_R X X X

variable             input string in.lammps
variable             sname string params_test


timestep             0.5

print                .
.
print                ==========================================
==========================================
print                "500 steps CG Minimization"
500 steps CG Minimization
print                ==========================================
==========================================
print                .
.

dump                 1 all custom 25 ${sname}.min.lammpstrj id type xu yu zu vx vy vz
dump                 1 all custom 25 params_test.min.lammpstrj id type xu yu zu vx vy vz
thermo               10
min_style            sd
minimize             1.0e-4 1.0e-4 500 5000

CITE-CITE-CITE-CITE-CITE-CITE-CITE-CITE-CITE-CITE-CITE-CITE-CITE

Your simulation uses code contributions which should be cited:

- neighbor multi command: doi:10.1016/j.cpc.2008.03.005, doi:10.1007/s40571-020-00361-2

@Article{Intveld08,
 author =  {in 't Veld, P. J. and S. J.~Plimpton and G. S. Grest},
 title =   {Accurate and Efficient Methods for Modeling Colloidal
            Mixtures in an Explicit Solvent using Molecular Dynamics},
 journal = {Comput.\ Phys.\ Commut.},
 year =    2008,
 volume =  179,
 pages =   {320--329}
}

@article{Shire2020,
 author = {Shire, Tom and Hanley, Kevin J. and Stratford, Kevin},
 title = {{DEM} Simulations of Polydisperse Media: Efficient Contact
          Detection Applied to Investigate the Quasi-Static Limit},
 journal = {Computational Particle Mechanics},
 year = {2020}
}

CITE-CITE-CITE-CITE-CITE-CITE-CITE-CITE-CITE-CITE-CITE-CITE-CITE

Switching to 'neigh_modify every 1 delay 0 check yes' setting during minimization
PPPM initialization ...
WARNING: System is not charge neutral, net charge = -0.0006 (src/kspace.cpp:327)
  using 12-bit tables for long-range coulomb (src/kspace.cpp:342)
  G vector (1/distance) = 0.063991812
  grid = 3 3 3
  stencil order = 5
  estimated absolute RMS force accuracy = 0.036397473
  estimated relative force accuracy = 0.00010960991
  using double precision FFTW3
  3d grid and FFT values/proc = 343 8
Generated 28 of 28 mixed pair_coeff terms from geometric mixing rule
Neighbor list info ...
  update: every = 1 steps, delay = 0 steps, check = yes
  max neighbors/atom: 2000, page size: 100000
  master list distance cutoff = 12
  ghost atom cutoff = 12
  binsize = 6, bins = 10 10 10
  1 neighbor lists, perpetual/occasional/extra = 1 0 0
  (1) pair lj/charmm/coul/long/opt, perpetual
      attributes: half, newton on
      pair build: half/multi/newton
      stencil: half/multi/3d
      bin: multi
Per MPI rank memory allocation (min/avg/max) = 15.99 | 16.91 | 17.76 Mbytes
------------ Step              0 ----- CPU =            0 (sec) -------------
TotEng   =     200.089979 KinEng   =       0.000000 Temp     =       0.000000 
PotEng   =     200.089979 E_bond   =      28.228952 E_angle  =      14.755458 
E_dihed  =      16.230033 E_impro  =       0.012484 E_vdwl   =     149.816912 
E_coul   =       2.396956 E_long   =     -11.350816 Press    =     166.176005
------------ Step             10 ----- CPU =  0.002259437 (sec) -------------
TotEng   =     135.149517 KinEng   =       0.000000 Temp     =       0.000000 
PotEng   =     135.149517 E_bond   =       5.638593 E_angle  =      12.477917 
E_dihed  =      17.783076 E_impro  =       0.068195 E_vdwl   =     107.649861 
E_coul   =       2.882661 E_long   =     -11.350785 Press    =     115.051316
------------ Step             20 ----- CPU =  0.004464784 (sec) -------------
TotEng   =     128.754097 KinEng   =       0.000000 Temp     =       0.000000 
PotEng   =     128.754097 E_bond   =       5.847890 E_angle  =      12.625793 
E_dihed  =      18.653586 E_impro  =       0.077117 E_vdwl   =      99.890249 
E_coul   =       3.010269 E_long   =     -11.350807 Press    =      97.791859
------------ Step             30 ----- CPU =  0.006746714 (sec) -------------
TotEng   =     124.606731 KinEng   =       0.000000 Temp     =       0.000000 
PotEng   =     124.606731 E_bond   =       6.389957 E_angle  =      12.981424 
E_dihed  =      19.449197 E_impro  =       0.082884 E_vdwl   =      94.058907 
E_coul   =       2.995212 E_long   =     -11.350850 Press    =      81.465416
------------ Step             40 ----- CPU =  0.008947121 (sec) -------------
TotEng   =     119.251954 KinEng   =       0.000000 Temp     =       0.000000 
PotEng   =     119.251954 E_bond   =       8.022597 E_angle  =      15.038000 
E_dihed  =      20.736363 E_impro  =       0.087195 E_vdwl   =      83.788155 
E_coul   =       2.930684 E_long   =     -11.351041 Press    =      48.442966
------------ Step             50 ----- CPU =   0.01121403 (sec) -------------
TotEng   =     118.710496 KinEng   =       0.000000 Temp     =       0.000000 
PotEng   =     118.710496 E_bond   =       8.183654 E_angle  =      15.303159 
E_dihed  =      20.789805 E_impro  =       0.086186 E_vdwl   =      82.766812 
E_coul   =       2.931942 E_long   =     -11.351062 Press    =      44.869841
------------ Step             60 ----- CPU =   0.01340572 (sec) -------------
TotEng   =     118.467882 KinEng   =       0.000000 Temp     =       0.000000 
PotEng   =     118.467882 E_bond   =       8.274208 E_angle  =      15.423082 
E_dihed  =      20.814821 E_impro  =       0.085847 E_vdwl   =      82.288591 
E_coul   =       2.932398 E_long   =     -11.351066 Press    =      43.121594
------------ Step             70 ----- CPU =   0.01560862 (sec) -------------
TotEng   =     118.224443 KinEng   =       0.000000 Temp     =       0.000000 
PotEng   =     118.224443 E_bond   =       8.358713 E_angle  =      15.535429 
E_dihed  =      20.837856 E_impro  =       0.085618 E_vdwl   =      81.845062 
E_coul   =       2.912834 E_long   =     -11.351068 Press    =      41.490172
------------ Step             80 ----- CPU =   0.01787496 (sec) -------------
TotEng   =     118.016563 KinEng   =       0.000000 Temp     =       0.000000 
PotEng   =     118.016563 E_bond   =       8.438321 E_angle  =      15.641366 
E_dihed  =      20.858848 E_impro  =       0.085462 E_vdwl   =      81.430204 
E_coul   =       2.913429 E_long   =     -11.351068 Press    =      39.961536
------------ Step             90 ----- CPU =   0.02006719 (sec) -------------
TotEng   =     117.820699 KinEng   =       0.000000 Temp     =       0.000000 
PotEng   =     117.820699 E_bond   =       8.514048 E_angle  =      15.742231 
E_dihed  =      20.877830 E_impro  =       0.085355 E_vdwl   =      81.038226 
E_coul   =       2.914076 E_long   =     -11.351067 Press    =      38.510515
------------ Step            100 ----- CPU =   0.02233448 (sec) -------------
TotEng   =     117.633498 KinEng   =       0.000000 Temp     =       0.000000 
PotEng   =     117.633498 E_bond   =       8.587024 E_angle  =      15.839505 
E_dihed  =      20.894881 E_impro  =       0.085281 E_vdwl   =      80.663096 
E_coul   =       2.914776 E_long   =     -11.351066 Press    =      37.115568
------------ Step            110 ----- CPU =   0.02452309 (sec) -------------
TotEng   =     117.418784 KinEng   =       0.000000 Temp     =       0.000000 
PotEng   =     117.418784 E_bond   =       8.658530 E_angle  =      15.934860 
E_dihed  =      20.910094 E_impro  =       0.085230 E_vdwl   =      80.298261 
E_coul   =       2.882872 E_long   =     -11.351063 Press    =      35.745134
------------ Step            120 ----- CPU =   0.02671843 (sec) -------------
TotEng   =     117.205266 KinEng   =       0.000000 Temp     =       0.000000 
PotEng   =     117.205266 E_bond   =       8.730066 E_angle  =      16.030276 
E_dihed  =      20.923534 E_impro  =       0.085195 E_vdwl   =      79.936160 
E_coul   =       2.851096 E_long   =     -11.351059 Press    =      34.379336
------------ Step            127 ----- CPU =   0.02854108 (sec) -------------
TotEng   =     117.095108 KinEng   =       0.000000 Temp     =       0.000000 
PotEng   =     117.095108 E_bond   =       8.802971 E_angle  =      16.140696 
E_dihed  =      20.933146 E_impro  =       0.084243 E_vdwl   =      79.615123 
E_coul   =       2.869974 E_long   =     -11.351044 Press    =      33.058654
Loop time of 0.0285669 on 8 procs for 127 steps with 122 atoms

99.2% CPU use with 8 MPI tasks x 1 OpenMP threads

Minimization stats:
  Stopping criterion = energy tolerance
  Energy initial, next-to-last, final = 
      200.089979090311     117.0952831612   117.095107898692
  Force two-norm initial, final = 412.5783 10.437568
  Force max component initial, final = 110.02966 4.5227677
  Final line search alpha, max atom move = 0.062343292 0.28196423
  Iterations, force evaluations = 127 254

MPI task timing breakdown:
Section |  min time  |  avg time  |  max time  |%varavg| %total
---------------------------------------------------------------
Pair    | 7.7072e-05 | 0.0019222  | 0.0049951  |   4.1 |  6.73
Bond    | 3.222e-05  | 0.0010773  | 0.0021469  |   2.8 |  3.77
Kspace  | 0.015301   | 0.019269   | 0.022527   |   2.1 | 67.45
Neigh   | 0          | 0          | 0          |   0.0 |  0.00
Comm    | 0.0026622  | 0.0032063  | 0.0037299  |   0.7 | 11.22
Output  | 0.00064246 | 0.00068729 | 0.00078605 |   0.0 |  2.41
Modify  | 0          | 0          | 0          |   0.0 |  0.00
Other   |            | 0.002405   |            |       |  8.42

Nlocal:          15.25 ave          32 max           0 min
Histogram: 3 0 1 0 0 0 0 1 1 2
Nghost:          95.25 ave         120 max          70 min
Histogram: 1 1 0 0 2 2 0 0 1 1
Neighs:         364.25 ave         932 max           0 min
Histogram: 3 1 0 0 0 2 0 0 0 2

Total # of neighbors = 2914
Ave neighs/atom = 23.885246
Ave special neighs/atom = 5.7540984
Neighbor list builds = 0
Dangerous builds = 0
min_style            cg
minimize             1.0e-4 1.0e-4 500 5000
Switching to 'neigh_modify every 1 delay 0 check yes' setting during minimization
PPPM initialization ...
  using 12-bit tables for long-range coulomb (src/kspace.cpp:342)
  G vector (1/distance) = 0.063991812
  grid = 3 3 3
  stencil order = 5
  estimated absolute RMS force accuracy = 0.036397473
  estimated relative force accuracy = 0.00010960991
  using double precision FFTW3
  3d grid and FFT values/proc = 343 8
Generated 28 of 28 mixed pair_coeff terms from geometric mixing rule
Per MPI rank memory allocation (min/avg/max) = 15.99 | 16.91 | 17.76 Mbytes
------------ Step            127 ----- CPU =            0 (sec) -------------
TotEng   =     117.095108 KinEng   =       0.000000 Temp     =       0.000000 
PotEng   =     117.095108 E_bond   =       8.802971 E_angle  =      16.140696 
E_dihed  =      20.933146 E_impro  =       0.084243 E_vdwl   =      79.615123 
E_coul   =       2.869974 E_long   =     -11.351044 Press    =      33.058654
------------ Step            130 ----- CPU =  0.000770068 (sec) -------------
TotEng   =     115.110009 KinEng   =       0.000000 Temp     =       0.000000 
PotEng   =     115.110009 E_bond   =      10.382264 E_angle  =      18.153152 
E_dihed  =      21.204839 E_impro  =       0.095533 E_vdwl   =      73.619778 
E_coul   =       3.005416 E_long   =     -11.350973 Press    =       8.599239
Loop time of 0.000796898 on 8 procs for 3 steps with 122 atoms

99.6% CPU use with 8 MPI tasks x 1 OpenMP threads

Minimization stats:
  Stopping criterion = energy tolerance
  Energy initial, next-to-last, final = 
      117.095107898692   115.121037677813   115.110009157651
  Force two-norm initial, final = 10.437568 5.7964182
  Force max component initial, final = 4.5227677 2.5625209
  Final line search alpha, max atom move = 0.050498977 0.12940468
  Iterations, force evaluations = 3 5

MPI task timing breakdown:
Section |  min time  |  avg time  |  max time  |%varavg| %total
---------------------------------------------------------------
Pair    | 2.995e-06  | 4.7409e-05 | 0.00011823 |   0.0 |  5.95
Bond    | 1.002e-06  | 2.7279e-05 | 5.4763e-05 |   0.0 |  3.42
Kspace  | 0.00037993 | 0.00046904 | 0.00054702 |   0.0 | 58.86
Neigh   | 0          | 0          | 0          |   0.0 |  0.00
Comm    | 6.5525e-05 | 7.8589e-05 | 8.8014e-05 |   0.0 |  9.86
Output  | 0          | 0          | 0          |   0.0 |  0.00
Modify  | 0          | 0          | 0          |   0.0 |  0.00
Other   |            | 0.0001746  |            |       | 21.91

Nlocal:          15.25 ave          32 max           0 min
Histogram: 3 0 1 0 0 0 0 1 1 2
Nghost:          95.75 ave         120 max          71 min
Histogram: 1 1 0 1 1 2 0 0 1 1
Neighs:        363.125 ave         931 max           0 min
Histogram: 3 1 0 0 0 2 0 0 0 2

Total # of neighbors = 2905
Ave neighs/atom = 23.811475
Ave special neighs/atom = 5.7540984
Neighbor list builds = 0
Dangerous builds = 0
#now                 minimize the entire system
minimize             1.0e-4 1.0e-4 500 5000
Switching to 'neigh_modify every 1 delay 0 check yes' setting during minimization
PPPM initialization ...
  using 12-bit tables for long-range coulomb (src/kspace.cpp:342)
  G vector (1/distance) = 0.063991812
  grid = 3 3 3
  stencil order = 5
  estimated absolute RMS force accuracy = 0.036397473
  estimated relative force accuracy = 0.00010960991
  using double precision FFTW3
  3d grid and FFT values/proc = 343 8
Generated 28 of 28 mixed pair_coeff terms from geometric mixing rule
Per MPI rank memory allocation (min/avg/max) = 15.99 | 16.91 | 17.76 Mbytes
------------ Step            130 ----- CPU =            0 (sec) -------------
TotEng   =     115.110009 KinEng   =       0.000000 Temp     =       0.000000 
PotEng   =     115.110009 E_bond   =      10.382264 E_angle  =      18.153152 
E_dihed  =      21.204839 E_impro  =       0.095533 E_vdwl   =      73.619778 
E_coul   =       3.005416 E_long   =     -11.350973 Press    =       8.599239
------------ Step            131 ----- CPU =  0.000418897 (sec) -------------
TotEng   =     115.103673 KinEng   =       0.000000 Temp     =       0.000000 
PotEng   =     115.103673 E_bond   =      10.358717 E_angle  =      18.190855 
E_dihed  =      21.202608 E_impro  =       0.094514 E_vdwl   =      73.602399 
E_coul   =       3.005544 E_long   =     -11.350964 Press    =       8.555052
Loop time of 0.000448567 on 8 procs for 1 steps with 122 atoms

90.9% CPU use with 8 MPI tasks x 1 OpenMP threads

Minimization stats:
  Stopping criterion = energy tolerance
  Energy initial, next-to-last, final = 
      115.110009157651   115.110009157651   115.103672596693
  Force two-norm initial, final = 5.7964182 3.8415494
  Force max component initial, final = 2.5625209 1.0474078
  Final line search alpha, max atom move = 0.039024072 0.040874117
  Iterations, force evaluations = 1 2

MPI task timing breakdown:
Section |  min time  |  avg time  |  max time  |%varavg| %total
---------------------------------------------------------------
Pair    | 1.542e-06  | 2.3909e-05 | 5.9743e-05 |   0.0 |  5.33
Bond    | 6.32e-07   | 1.3835e-05 | 2.714e-05  |   0.0 |  3.08
Kspace  | 0.00018856 | 0.00023606 | 0.00027563 |   0.0 | 52.63
Neigh   | 0          | 0          | 0          |   0.0 |  0.00
Comm    | 3.0909e-05 | 3.8583e-05 | 4.5034e-05 |   0.0 |  8.60
Output  | 0          | 0          | 0          |   0.0 |  0.00
Modify  | 0          | 0          | 0          |   0.0 |  0.00
Other   |            | 0.0001362  |            |       | 30.36

Nlocal:          15.25 ave          32 max           0 min
Histogram: 3 0 1 0 0 0 0 1 1 2
Nghost:          95.75 ave         120 max          71 min
Histogram: 1 1 0 1 1 2 0 0 1 1
Neighs:          362.5 ave         931 max           0 min
Histogram: 3 1 0 0 0 2 0 0 0 2

Total # of neighbors = 2900
Ave neighs/atom = 23.770492
Ave special neighs/atom = 5.7540984
Neighbor list builds = 0
Dangerous builds = 0
undump               1

print                .
.
print                =====================================
=====================================
print                "NVT dynamics to heat system"
NVT dynamics to heat system
print                =====================================
=====================================
print                .
.

reset_timestep       0
##fix                  shakeH all shake 0.0001 20 500 m 1.0079
velocity             all create 0.0 12345678 dist uniform
thermo               100
dump                 1 all custom 1000 ${sname}.heat.lammpstrj id type xu yu zu vx vy vz
dump                 1 all custom 1000 params_test.heat.lammpstrj id type xu yu zu vx vy vz
fix                  4 all nvt temp 1.0 300.0 100.0
run                  10000
PPPM initialization ...
  using 12-bit tables for long-range coulomb (src/kspace.cpp:342)
  G vector (1/distance) = 0.063991812
  grid = 3 3 3
  stencil order = 5
  estimated absolute RMS force accuracy = 0.036397473
  estimated relative force accuracy = 0.00010960991
  using double precision FFTW3
  3d grid and FFT values/proc = 343 8
Generated 28 of 28 mixed pair_coeff terms from geometric mixing rule
Per MPI rank memory allocation (min/avg/max) = 14.86 | 15.79 | 16.64 Mbytes
------------ Step              0 ----- CPU =            0 (sec) -------------
TotEng   =     115.103673 KinEng   =       0.000000 Temp     =       0.000000 
PotEng   =     115.103673 E_bond   =      10.358717 E_angle  =      18.190855 
E_dihed  =      21.202608 E_impro  =       0.094514 E_vdwl   =      73.602399 
E_coul   =       3.005544 E_long   =     -11.350964 Press    =       8.555052
------------ Step            100 ----- CPU =  0.009416573 (sec) -------------
TotEng   =     115.156484 KinEng   =       0.677109 Temp     =       1.877322 
PotEng   =     114.479375 E_bond   =       9.928510 E_angle  =      17.680081 
E_dihed  =      20.713111 E_impro  =       0.089592 E_vdwl   =      74.418019 
E_coul   =       3.000956 E_long   =     -11.350894 Press    =      13.478155
------------ Step            200 ----- CPU =   0.01880932 (sec) -------------
TotEng   =     115.337021 KinEng   =       2.192375 Temp     =       6.078483 
PotEng   =     113.144646 E_bond   =      10.584314 E_angle  =      18.912395 
E_dihed  =      19.915312 E_impro  =       0.103642 E_vdwl   =      71.993093 
E_coul   =       2.986675 E_long   =     -11.350786 Press    =       3.711459
------------ Step            300 ----- CPU =   0.02820173 (sec) -------------
TotEng   =     115.681739 KinEng   =       4.150202 Temp     =      11.506666 
PotEng   =     111.531537 E_bond   =      11.253246 E_angle  =      20.797093 
E_dihed  =      18.693706 E_impro  =       0.153959 E_vdwl   =      69.057983 
E_coul   =       2.926448 E_long   =     -11.350899 Press    =      -5.592046
------------ Step            400 ----- CPU =   0.03770909 (sec) -------------
TotEng   =     115.660623 KinEng   =       5.288138 Temp     =      14.661658 
PotEng   =     110.372486 E_bond   =      10.761876 E_angle  =      22.290638 
E_dihed  =      18.433594 E_impro  =       0.215735 E_vdwl   =      67.370442 
E_coul   =       2.651435 E_long   =     -11.351234 Press    =      -6.482569
------------ Step            500 ----- CPU =   0.04709313 (sec) -------------
TotEng   =     115.338852 KinEng   =       5.371314 Temp     =      14.892268 
PotEng   =     109.967539 E_bond   =      10.574162 E_angle  =      23.618784 
E_dihed  =      18.669078 E_impro  =       0.378077 E_vdwl   =      65.728228 
E_coul   =       2.350906 E_long   =     -11.351698 Press    =      -7.012440
------------ Step            600 ----- CPU =    0.0565379 (sec) -------------
TotEng   =     115.215131 KinEng   =       6.846218 Temp     =      18.981523 
PotEng   =     108.368913 E_bond   =      10.436781 E_angle  =      23.287292 
E_dihed  =      18.293684 E_impro  =       0.485772 E_vdwl   =      65.051485 
E_coul   =       2.166240 E_long   =     -11.352341 Press    =      -6.284799
------------ Step            700 ----- CPU =    0.0660046 (sec) -------------
TotEng   =     115.168882 KinEng   =       8.305050 Temp     =      23.026217 
PotEng   =     106.863832 E_bond   =      10.196387 E_angle  =      20.933184 
E_dihed  =      17.905524 E_impro  =       0.455877 E_vdwl   =      66.436767 
E_coul   =       2.289499 E_long   =     -11.353407 Press    =      -1.442139
------------ Step            800 ----- CPU =   0.07539244 (sec) -------------
TotEng   =     114.884707 KinEng   =       6.259735 Temp     =      17.355465 
PotEng   =     108.624972 E_bond   =       9.486845 E_angle  =      19.884237 
E_dihed  =      18.991350 E_impro  =       0.382861 E_vdwl   =      69.025037 
E_coul   =       2.208339 E_long   =     -11.353698 Press    =       7.137147
------------ Step            900 ----- CPU =   0.08490356 (sec) -------------
TotEng   =     115.598974 KinEng   =       8.709359 Temp     =      24.147186 
PotEng   =     106.889615 E_bond   =      10.857463 E_angle  =      23.165797 
E_dihed  =      14.983732 E_impro  =       0.274428 E_vdwl   =      66.937622 
E_coul   =       2.024154 E_long   =     -11.353580 Press    =      -2.608208
------------ Step           1000 ----- CPU =   0.09452358 (sec) -------------
TotEng   =     117.143715 KinEng   =       8.758060 Temp     =      24.282213 
PotEng   =     108.385655 E_bond   =      10.852114 E_angle  =      25.313096 
E_dihed  =      13.963307 E_impro  =       0.200974 E_vdwl   =      67.089107 
E_coul   =       2.320593 E_long   =     -11.353536 Press    =      -1.604509
------------ Step           1100 ----- CPU =    0.1039832 (sec) -------------
TotEng   =     118.471721 KinEng   =       7.023817 Temp     =      19.473925 
PotEng   =     111.447905 E_bond   =      11.713468 E_angle  =      21.337973 
E_dihed  =      19.112495 E_impro  =       0.376281 E_vdwl   =      67.640453 
E_coul   =       2.621537 E_long   =     -11.354302 Press    =      -9.800303
------------ Step           1200 ----- CPU =    0.1135462 (sec) -------------
TotEng   =     119.602825 KinEng   =       4.845063 Temp     =      13.433207 
PotEng   =     114.757762 E_bond   =      10.970602 E_angle  =      22.619315 
E_dihed  =      20.802055 E_impro  =       0.236871 E_vdwl   =      68.842034 
E_coul   =       2.641664 E_long   =     -11.354780 Press    =      -4.004915
------------ Step           1300 ----- CPU =    0.1229839 (sec) -------------
TotEng   =     121.174855 KinEng   =       7.995294 Temp     =      22.167401 
PotEng   =     113.179561 E_bond   =       9.759094 E_angle  =      22.604334 
E_dihed  =      20.630696 E_impro  =       0.447677 E_vdwl   =      68.453851 
E_coul   =       2.638015 E_long   =     -11.354107 Press    =       5.092688
------------ Step           1400 ----- CPU =    0.1325412 (sec) -------------
TotEng   =     122.845410 KinEng   =       7.172894 Temp     =      19.887249 
PotEng   =     115.672516 E_bond   =      10.209148 E_angle  =      24.828211 
E_dihed  =      21.042309 E_impro  =       0.847324 E_vdwl   =      67.492967 
E_coul   =       2.605734 E_long   =     -11.353176 Press    =       2.212069
------------ Step           1500 ----- CPU =    0.1420129 (sec) -------------
TotEng   =     125.318570 KinEng   =       8.897519 Temp     =      24.668870 
PotEng   =     116.421051 E_bond   =       9.028065 E_angle  =      25.632306 
E_dihed  =      21.744787 E_impro  =       0.755222 E_vdwl   =      67.656845 
E_coul   =       2.956998 E_long   =     -11.353172 Press    =       7.635258
------------ Step           1600 ----- CPU =    0.1515512 (sec) -------------
TotEng   =     127.758402 KinEng   =      11.911268 Temp     =      33.024658 
PotEng   =     115.847134 E_bond   =       9.834100 E_angle  =      22.746445 
E_dihed  =      21.448152 E_impro  =       0.661869 E_vdwl   =      69.402670 
E_coul   =       3.108132 E_long   =     -11.354233 Press    =       3.211777
------------ Step           1700 ----- CPU =    0.1610975 (sec) -------------
TotEng   =     130.624462 KinEng   =      13.696822 Temp     =      37.975207 
PotEng   =     116.927640 E_bond   =      10.837973 E_angle  =      24.187453 
E_dihed  =      21.709275 E_impro  =       0.333388 E_vdwl   =      68.189301 
E_coul   =       3.023567 E_long   =     -11.353318 Press    =      -3.097982
------------ Step           1800 ----- CPU =    0.1705454 (sec) -------------
TotEng   =     133.805182 KinEng   =      14.700992 Temp     =      40.759324 
PotEng   =     119.104190 E_bond   =      11.754293 E_angle  =      28.633918 
E_dihed  =      19.698789 E_impro  =       0.208674 E_vdwl   =      67.065593 
E_coul   =       3.095249 E_long   =     -11.352326 Press    =      -7.494053
------------ Step           1900 ----- CPU =    0.1801014 (sec) -------------
TotEng   =     136.715731 KinEng   =      14.244755 Temp     =      39.494382 
PotEng   =     122.470975 E_bond   =      11.764205 E_angle  =      28.137166 
E_dihed  =      22.653337 E_impro  =       0.135591 E_vdwl   =      68.510760 
E_coul   =       2.622023 E_long   =     -11.352106 Press    =      -9.309518
------------ Step           2000 ----- CPU =    0.1897213 (sec) -------------
TotEng   =     140.255799 KinEng   =      17.488860 Temp     =      48.488845 
PotEng   =     122.766939 E_bond   =       9.920060 E_angle  =      32.515536 
E_dihed  =      18.427194 E_impro  =       0.227314 E_vdwl   =      70.470127 
E_coul   =       2.557133 E_long   =     -11.350425 Press    =       7.596179
------------ Step           2100 ----- CPU =     0.199453 (sec) -------------
TotEng   =     144.575215 KinEng   =      23.548303 Temp     =      65.288989 
PotEng   =     121.026912 E_bond   =      11.598781 E_angle  =      26.715584 
E_dihed  =      19.275681 E_impro  =       0.813325 E_vdwl   =      70.941087 
E_coul   =       3.030676 E_long   =     -11.348223 Press    =       1.363896
------------ Step           2200 ----- CPU =    0.2093649 (sec) -------------
TotEng   =     147.843659 KinEng   =      30.074415 Temp     =      83.383001 
PotEng   =     117.769243 E_bond   =      11.954896 E_angle  =      22.944170 
E_dihed  =      21.572445 E_impro  =       0.485878 E_vdwl   =      69.404425 
E_coul   =       2.755716 E_long   =     -11.348286 Press    =      -3.122913
------------ Step           2300 ----- CPU =    0.2192966 (sec) -------------
TotEng   =     148.238899 KinEng   =      24.637117 Temp     =      68.307786 
PotEng   =     123.601783 E_bond   =      13.801979 E_angle  =      27.411623 
E_dihed  =      19.376317 E_impro  =       0.671349 E_vdwl   =      71.464177 
E_coul   =       2.222707 E_long   =     -11.346371 Press    =      -8.879740
------------ Step           2400 ----- CPU =    0.2292153 (sec) -------------
TotEng   =     148.984642 KinEng   =      21.823505 Temp     =      60.506890 
PotEng   =     127.161136 E_bond   =      14.027574 E_angle  =      25.595463 
E_dihed  =      29.256681 E_impro  =       1.110857 E_vdwl   =      66.297554 
E_coul   =       2.219425 E_long   =     -11.346417 Press    =     -23.301689
------------ Step           2500 ----- CPU =    0.2389443 (sec) -------------
TotEng   =     151.559429 KinEng   =      19.949340 Temp     =      55.310663 
PotEng   =     131.610089 E_bond   =       8.130015 E_angle  =      23.594375 
E_dihed  =      39.323839 E_impro  =       0.304578 E_vdwl   =      69.599987 
E_coul   =       2.002858 E_long   =     -11.345564 Press    =      23.757203
------------ Step           2600 ----- CPU =    0.2487613 (sec) -------------
TotEng   =     155.295700 KinEng   =      19.993128 Temp     =      55.432068 
PotEng   =     135.302572 E_bond   =      11.115176 E_angle  =      19.232925 
E_dihed  =      40.099519 E_impro  =       0.522385 E_vdwl   =      73.601273 
E_coul   =       2.076206 E_long   =     -11.344912 Press    =       9.713346
------------ Step           2700 ----- CPU =     0.258637 (sec) -------------
TotEng   =     159.997631 KinEng   =      23.714152 Temp     =      65.748814 
PotEng   =     136.283479 E_bond   =      10.594929 E_angle  =      26.497526 
E_dihed  =      37.459364 E_impro  =       0.675272 E_vdwl   =      70.473222 
E_coul   =       1.926114 E_long   =     -11.342948 Press    =       8.362318
------------ Step           2800 ----- CPU =    0.2685807 (sec) -------------
TotEng   =     165.159612 KinEng   =      36.980958 Temp     =     102.531776 
PotEng   =     128.178655 E_bond   =       9.944865 E_angle  =      20.193533 
E_dihed  =      33.987419 E_impro  =       1.158342 E_vdwl   =      72.422576 
E_coul   =       1.816064 E_long   =     -11.344145 Press    =      15.217519
------------ Step           2900 ----- CPU =    0.2785336 (sec) -------------
TotEng   =     168.928999 KinEng   =      29.752276 Temp     =      82.489853 
PotEng   =     139.176723 E_bond   =      15.374277 E_angle  =      37.530105 
E_dihed  =      23.243992 E_impro  =       1.124706 E_vdwl   =      70.498259 
E_coul   =       2.753005 E_long   =     -11.347621 Press    =      -7.237254
------------ Step           3000 ----- CPU =    0.2885479 (sec) -------------
TotEng   =     170.259824 KinEng   =      36.540659 Temp     =     101.311025 
PotEng   =     133.719165 E_bond   =      13.459987 E_angle  =      27.509522 
E_dihed  =      26.749214 E_impro  =       0.607407 E_vdwl   =      73.804862 
E_coul   =       2.936656 E_long   =     -11.348484 Press    =      -4.991546
------------ Step           3100 ----- CPU =    0.2983589 (sec) -------------
TotEng   =     169.265274 KinEng   =      35.305586 Temp     =      97.886716 
PotEng   =     133.959687 E_bond   =       9.161753 E_angle  =      32.257075 
E_dihed  =      25.444021 E_impro  =       0.727545 E_vdwl   =      75.110089 
E_coul   =       2.608804 E_long   =     -11.349599 Press    =      30.124426
------------ Step           3200 ----- CPU =    0.3081923 (sec) -------------
TotEng   =     166.061066 KinEng   =      32.496414 Temp     =      90.098129 
PotEng   =     133.564652 E_bond   =      14.353901 E_angle  =      31.785308 
E_dihed  =      31.709103 E_impro  =       0.951593 E_vdwl   =      63.507997 
E_coul   =       2.607287 E_long   =     -11.350537 Press    =     -24.974131
------------ Step           3300 ----- CPU =    0.3178328 (sec) -------------
TotEng   =     164.385260 KinEng   =      29.193904 Temp     =      80.941733 
PotEng   =     135.191356 E_bond   =      14.690369 E_angle  =      30.045353 
E_dihed  =      28.335893 E_impro  =       0.304021 E_vdwl   =      70.608275 
E_coul   =       2.559296 E_long   =     -11.351851 Press    =     -12.586191
------------ Step           3400 ----- CPU =    0.3274811 (sec) -------------
TotEng   =     165.126914 KinEng   =      32.739017 Temp     =      90.770758 
PotEng   =     132.387897 E_bond   =       8.725770 E_angle  =      25.495921 
E_dihed  =      23.668167 E_impro  =       0.587511 E_vdwl   =      83.268869 
E_coul   =       1.994378 E_long   =     -11.352719 Press    =      52.003917
------------ Step           3500 ----- CPU =    0.3370444 (sec) -------------
TotEng   =     169.326671 KinEng   =      41.209530 Temp     =     114.255730 
PotEng   =     128.117141 E_bond   =      13.195040 E_angle  =      31.192284 
E_dihed  =      21.014307 E_impro  =       0.500990 E_vdwl   =      70.614061 
E_coul   =       2.953207 E_long   =     -11.352747 Press    =       2.199489
------------ Step           3600 ----- CPU =    0.3466356 (sec) -------------
TotEng   =     173.406387 KinEng   =      30.475424 Temp     =      84.494819 
PotEng   =     142.930963 E_bond   =      21.466822 E_angle  =      42.780874 
E_dihed  =      23.348868 E_impro  =       0.668079 E_vdwl   =      62.462037 
E_coul   =       3.556467 E_long   =     -11.352183 Press    =     -53.702799
------------ Step           3700 ----- CPU =    0.3561244 (sec) -------------
TotEng   =     178.621362 KinEng   =      39.937168 Temp     =     110.728035 
PotEng   =     138.684194 E_bond   =      12.179904 E_angle  =      37.774997 
E_dihed  =      22.555220 E_impro  =       0.751378 E_vdwl   =      73.808601 
E_coul   =       2.966176 E_long   =     -11.352083 Press    =      14.031933
------------ Step           3800 ----- CPU =      0.36565 (sec) -------------
TotEng   =     183.045290 KinEng   =      53.453216 Temp     =     148.202036 
PotEng   =     129.592074 E_bond   =      13.349832 E_angle  =      25.284127 
E_dihed  =      26.319227 E_impro  =       1.027163 E_vdwl   =      71.918367 
E_coul   =       3.044923 E_long   =     -11.351565 Press    =       8.012262
------------ Step           3900 ----- CPU =    0.3750782 (sec) -------------
TotEng   =     183.585913 KinEng   =      44.624275 Temp     =     123.723302 
PotEng   =     138.961638 E_bond   =      14.717430 E_angle  =      34.614045 
E_dihed  =      25.577800 E_impro  =       0.657025 E_vdwl   =      71.773023 
E_coul   =       2.972106 E_long   =     -11.349790 Press    =      -1.808740
------------ Step           4000 ----- CPU =    0.3845818 (sec) -------------
TotEng   =     181.764346 KinEng   =      47.449859 Temp     =     131.557392 
PotEng   =     134.314487 E_bond   =      15.368423 E_angle  =      27.315532 
E_dihed  =      24.557617 E_impro  =       1.237312 E_vdwl   =      74.850981 
E_coul   =       2.336748 E_long   =     -11.352125 Press    =      -1.938786
------------ Step           4100 ----- CPU =    0.3939523 (sec) -------------
TotEng   =     178.840774 KinEng   =      44.344117 Temp     =     122.946547 
PotEng   =     134.496657 E_bond   =      12.409561 E_angle  =      28.480872 
E_dihed  =      32.359993 E_impro  =       1.039821 E_vdwl   =      69.202927 
E_coul   =       2.356089 E_long   =     -11.352605 Press    =      12.148956
------------ Step           4200 ----- CPU =    0.4033446 (sec) -------------
TotEng   =     176.278623 KinEng   =      45.603719 Temp     =     126.438864 
PotEng   =     130.674904 E_bond   =      16.069361 E_angle  =      23.965585 
E_dihed  =      33.363154 E_impro  =       0.539291 E_vdwl   =      66.164980 
E_coul   =       1.926020 E_long   =     -11.353488 Press    =     -21.824862
------------ Step           4300 ----- CPU =    0.4126323 (sec) -------------
TotEng   =     174.898314 KinEng   =      40.018999 Temp     =     110.954916 
PotEng   =     134.879315 E_bond   =      14.433829 E_angle  =      25.934004 
E_dihed  =      31.680843 E_impro  =       0.976072 E_vdwl   =      71.577232 
E_coul   =       1.628714 E_long   =     -11.351378 Press    =      -9.489811
------------ Step           4400 ----- CPU =    0.4219642 (sec) -------------
TotEng   =     176.485306 KinEng   =      46.635046 Temp     =     129.298276 
PotEng   =     129.850261 E_bond   =      11.841128 E_angle  =      21.383138 
E_dihed  =      29.919972 E_impro  =       0.621541 E_vdwl   =      75.579383 
E_coul   =       1.857112 E_long   =     -11.352013 Press    =      13.426536
------------ Step           4500 ----- CPU =    0.4312333 (sec) -------------
TotEng   =     179.720275 KinEng   =      41.256928 Temp     =     114.387143 
PotEng   =     138.463347 E_bond   =      10.590252 E_angle  =      34.985197 
E_dihed  =      30.271761 E_impro  =       0.954027 E_vdwl   =      71.250238 
E_coul   =       1.763448 E_long   =     -11.351576 Press    =      22.014076
------------ Step           4600 ----- CPU =    0.4405527 (sec) -------------
TotEng   =     185.117807 KinEng   =      46.628701 Temp     =     129.280686 
PotEng   =     138.489106 E_bond   =      18.792862 E_angle  =      31.114669 
E_dihed  =      32.178633 E_impro  =       1.602242 E_vdwl   =      64.128176 
E_coul   =       2.023077 E_long   =     -11.350554 Press    =     -40.943834
------------ Step           4700 ----- CPU =    0.4499807 (sec) -------------
TotEng   =     191.006269 KinEng   =      43.338851 Temp     =     120.159393 
PotEng   =     147.667417 E_bond   =      12.589481 E_angle  =      33.086926 
E_dihed  =      31.071157 E_impro  =       1.679354 E_vdwl   =      78.599651 
E_coul   =       1.989371 E_long   =     -11.348522 Press    =      14.923787
------------ Step           4800 ----- CPU =    0.4592365 (sec) -------------
TotEng   =     195.673905 KinEng   =      45.345681 Temp     =     125.723440 
PotEng   =     150.328224 E_bond   =      10.592719 E_angle  =      37.318597 
E_dihed  =      38.349199 E_impro  =       1.477576 E_vdwl   =      72.529640 
E_coul   =       1.410762 E_long   =     -11.350269 Press    =      24.712131
------------ Step           4900 ----- CPU =    0.4685896 (sec) -------------
TotEng   =     201.531653 KinEng   =      45.727703 Temp     =     126.782618 
PotEng   =     155.803950 E_bond   =      16.197985 E_angle  =      44.086731 
E_dihed  =      37.167462 E_impro  =       1.981991 E_vdwl   =      65.507622 
E_coul   =       2.209424 E_long   =     -11.347266 Press    =      -0.346228
------------ Step           5000 ----- CPU =    0.4783775 (sec) -------------
TotEng   =     207.125145 KinEng   =      47.618995 Temp     =     132.026331 
PotEng   =     159.506150 E_bond   =      13.489735 E_angle  =      32.125701 
E_dihed  =      46.643896 E_impro  =       2.307164 E_vdwl   =      73.518811 
E_coul   =       2.769588 E_long   =     -11.348746 Press    =      10.829594
------------ Step           5100 ----- CPU =    0.4880601 (sec) -------------
TotEng   =     213.242107 KinEng   =      56.588492 Temp     =     156.894764 
PotEng   =     156.653615 E_bond   =      15.909384 E_angle  =      36.973256 
E_dihed  =      40.859684 E_impro  =       2.010409 E_vdwl   =      69.135242 
E_coul   =       3.115222 E_long   =     -11.349583 Press    =     -21.384842
------------ Step           5200 ----- CPU =    0.4978261 (sec) -------------
TotEng   =     218.014688 KinEng   =      52.064048 Temp     =     144.350490 
PotEng   =     165.950640 E_bond   =      17.624897 E_angle  =      43.675124 
E_dihed  =      41.708068 E_impro  =       0.502600 E_vdwl   =      71.050112 
E_coul   =       2.737656 E_long   =     -11.347816 Press    =       4.274024
------------ Step           5300 ----- CPU =    0.5077644 (sec) -------------
TotEng   =     222.856966 KinEng   =      67.531241 Temp     =     187.234147 
PotEng   =     155.325725 E_bond   =      14.042347 E_angle  =      29.157700 
E_dihed  =      50.387569 E_impro  =       1.636121 E_vdwl   =      68.716323 
E_coul   =       2.732620 E_long   =     -11.346955 Press    =       5.215459
------------ Step           5400 ----- CPU =    0.5176409 (sec) -------------
TotEng   =     224.785536 KinEng   =      60.215426 Temp     =     166.950640 
PotEng   =     164.570110 E_bond   =      19.650877 E_angle  =      38.725144 
E_dihed  =      40.297051 E_impro  =       0.718335 E_vdwl   =      74.006494 
E_coul   =       2.518746 E_long   =     -11.346536 Press    =     -18.617785
------------ Step           5500 ----- CPU =    0.5274472 (sec) -------------
TotEng   =     223.472546 KinEng   =      67.374856 Temp     =     186.800563 
PotEng   =     156.097690 E_bond   =      13.408725 E_angle  =      33.439556 
E_dihed  =      37.748199 E_impro  =       1.350975 E_vdwl   =      78.571504 
E_coul   =       2.922741 E_long   =     -11.344010 Press    =      43.959530
------------ Step           5600 ----- CPU =    0.5374539 (sec) -------------
TotEng   =     215.832294 KinEng   =      68.354692 Temp     =     189.517211 
PotEng   =     147.477603 E_bond   =      18.720816 E_angle  =      33.007857 
E_dihed  =      32.507857 E_impro  =       2.639687 E_vdwl   =      69.135775 
E_coul   =       2.806806 E_long   =     -11.341196 Press    =     -24.124961
------------ Step           5700 ----- CPU =    0.5475844 (sec) -------------
TotEng   =     210.316657 KinEng   =      55.646590 Temp     =     154.283286 
PotEng   =     154.670068 E_bond   =      19.733101 E_angle  =      36.844901 
E_dihed  =      31.079863 E_impro  =       2.101010 E_vdwl   =      73.250017 
E_coul   =       3.007942 E_long   =     -11.346766 Press    =     -15.206558
------------ Step           5800 ----- CPU =    0.5576281 (sec) -------------
TotEng   =     208.427104 KinEng   =      55.108083 Temp     =     152.790247 
PotEng   =     153.319021 E_bond   =      15.121859 E_angle  =      40.052953 
E_dihed  =      29.632169 E_impro  =       0.889026 E_vdwl   =      76.348676 
E_coul   =       2.620833 E_long   =     -11.346495 Press    =       3.322522
------------ Step           5900 ----- CPU =    0.5678387 (sec) -------------
TotEng   =     210.084115 KinEng   =      46.542909 Temp     =     129.042823 
PotEng   =     163.541206 E_bond   =      16.677779 E_angle  =      35.905436 
E_dihed  =      40.947331 E_impro  =       1.539223 E_vdwl   =      76.936236 
E_coul   =       2.881779 E_long   =     -11.346578 Press    =       7.235582
------------ Step           6000 ----- CPU =    0.5782889 (sec) -------------
TotEng   =     216.284076 KinEng   =      55.558446 Temp     =     154.038902 
PotEng   =     160.725630 E_bond   =      15.038302 E_angle  =      36.697583 
E_dihed  =      43.309377 E_impro  =       1.939103 E_vdwl   =      72.560623 
E_coul   =       2.528618 E_long   =     -11.347975 Press    =      -6.413854
------------ Step           6100 ----- CPU =    0.5885565 (sec) -------------
TotEng   =     222.862317 KinEng   =      61.606686 Temp     =     170.807988 
PotEng   =     161.255631 E_bond   =      18.942377 E_angle  =      29.083077 
E_dihed  =      39.291497 E_impro  =       2.205328 E_vdwl   =      80.309104 
E_coul   =       2.773568 E_long   =     -11.349321 Press    =      18.049529
------------ Step           6200 ----- CPU =     0.598911 (sec) -------------
TotEng   =     227.523321 KinEng   =      60.359649 Temp     =     167.350508 
PotEng   =     167.163672 E_bond   =      20.010999 E_angle  =      32.900467 
E_dihed  =      40.440237 E_impro  =       3.371789 E_vdwl   =      78.777531 
E_coul   =       3.013164 E_long   =     -11.350516 Press    =     -14.695291
------------ Step           6300 ----- CPU =    0.6091888 (sec) -------------
TotEng   =     232.275556 KinEng   =      66.640587 Temp     =     184.764761 
PotEng   =     165.634968 E_bond   =      16.327381 E_angle  =      48.940677 
E_dihed  =      31.731302 E_impro  =       1.676243 E_vdwl   =      76.107363 
E_coul   =       2.203656 E_long   =     -11.351652 Press    =      26.420203
------------ Step           6400 ----- CPU =    0.6196358 (sec) -------------
TotEng   =     237.652492 KinEng   =      80.781800 Temp     =     223.972065 
PotEng   =     156.870692 E_bond   =      18.318853 E_angle  =      30.851883 
E_dihed  =      37.747387 E_impro  =       1.177383 E_vdwl   =      78.236987 
E_coul   =       1.886226 E_long   =     -11.348026 Press    =      -9.256228
------------ Step           6500 ----- CPU =    0.6299275 (sec) -------------
TotEng   =     239.905820 KinEng   =      78.159615 Temp     =     216.701911 
PotEng   =     161.746205 E_bond   =      17.763008 E_angle  =      36.577477 
E_dihed  =      35.778924 E_impro  =       2.158272 E_vdwl   =      78.603664 
E_coul   =       2.209564 E_long   =     -11.344705 Press    =      11.818640
------------ Step           6600 ----- CPU =    0.6403702 (sec) -------------
TotEng   =     239.309134 KinEng   =      78.829613 Temp     =     218.559517 
PotEng   =     160.479521 E_bond   =      20.822777 E_angle  =      46.009420 
E_dihed  =      36.584273 E_impro  =       1.350774 E_vdwl   =      65.446895 
E_coul   =       1.612165 E_long   =     -11.346784 Press    =     -25.747222
------------ Step           6700 ----- CPU =    0.6508163 (sec) -------------
TotEng   =     240.338758 KinEng   =      75.252163 Temp     =     208.640835 
PotEng   =     165.086596 E_bond   =      13.966645 E_angle  =      42.418775 
E_dihed  =      48.036704 E_impro  =       1.934730 E_vdwl   =      67.350177 
E_coul   =       2.723859 E_long   =     -11.344295 Press    =      10.878184
------------ Step           6800 ----- CPU =    0.6613295 (sec) -------------
TotEng   =     242.558749 KinEng   =      77.276521 Temp     =     214.253482 
PotEng   =     165.282228 E_bond   =      16.377759 E_angle  =      34.985708 
E_dihed  =      42.346257 E_impro  =       1.372088 E_vdwl   =      78.846940 
E_coul   =       2.700293 E_long   =     -11.346816 Press    =      28.518739
------------ Step           6900 ----- CPU =    0.6717326 (sec) -------------
TotEng   =     244.535265 KinEng   =      74.766348 Temp     =     207.293887 
PotEng   =     169.768917 E_bond   =      19.852252 E_angle  =      39.788985 
E_dihed  =      46.906195 E_impro  =       3.031040 E_vdwl   =      69.238844 
E_coul   =       2.298159 E_long   =     -11.346556 Press    =     -21.335974
------------ Step           7000 ----- CPU =    0.6822928 (sec) -------------
TotEng   =     249.879402 KinEng   =      78.060376 Temp     =     216.426765 
PotEng   =     171.819026 E_bond   =      16.078425 E_angle  =      46.067658 
E_dihed  =      38.030815 E_impro  =       3.560703 E_vdwl   =      76.626130 
E_coul   =       2.800057 E_long   =     -11.344762 Press    =      42.754108
------------ Step           7100 ----- CPU =    0.6927129 (sec) -------------
TotEng   =     254.357603 KinEng   =      80.137681 Temp     =     222.186209 
PotEng   =     174.219922 E_bond   =      27.074965 E_angle  =      58.789699 
E_dihed  =      30.162771 E_impro  =       1.335571 E_vdwl   =      65.857558 
E_coul   =       2.342314 E_long   =     -11.342956 Press    =     -36.645174
------------ Step           7200 ----- CPU =    0.7031607 (sec) -------------
TotEng   =     252.394948 KinEng   =      74.202154 Temp     =     205.729627 
PotEng   =     178.192795 E_bond   =      20.960815 E_angle  =      59.639730 
E_dihed  =      27.338910 E_impro  =       1.659138 E_vdwl   =      77.620938 
E_coul   =       2.315658 E_long   =     -11.342394 Press    =       8.706698
------------ Step           7300 ----- CPU =    0.7134273 (sec) -------------
TotEng   =     248.061439 KinEng   =      68.186786 Temp     =     189.051682 
PotEng   =     179.874654 E_bond   =      28.322802 E_angle  =      56.089753 
E_dihed  =      24.629723 E_impro  =       1.123010 E_vdwl   =      78.617746 
E_coul   =       2.436255 E_long   =     -11.344636 Press    =     -29.335328
------------ Step           7400 ----- CPU =    0.7238018 (sec) -------------
TotEng   =     244.015351 KinEng   =      74.818313 Temp     =     207.437962 
PotEng   =     169.197038 E_bond   =      20.863098 E_angle  =      52.934007 
E_dihed  =      27.559745 E_impro  =       2.186852 E_vdwl   =      74.683286 
E_coul   =       2.314596 E_long   =     -11.344546 Press    =      35.747619
------------ Step           7500 ----- CPU =    0.7340441 (sec) -------------
TotEng   =     238.740296 KinEng   =      77.608816 Temp     =     215.174789 
PotEng   =     161.131480 E_bond   =      26.633281 E_angle  =      39.086115 
E_dihed  =      31.356654 E_impro  =       1.546283 E_vdwl   =      70.396509 
E_coul   =       3.458179 E_long   =     -11.345541 Press    =     -35.454689
------------ Step           7600 ----- CPU =    0.7443149 (sec) -------------
TotEng   =     233.153665 KinEng   =      67.647111 Temp     =     187.555404 
PotEng   =     165.506554 E_bond   =      19.769544 E_angle  =      34.374318 
E_dihed  =      44.869063 E_impro  =       1.903153 E_vdwl   =      72.411440 
E_coul   =       3.525675 E_long   =     -11.346639 Press    =       0.009024
------------ Step           7700 ----- CPU =     0.754401 (sec) -------------
TotEng   =     232.170343 KinEng   =      57.623485 Temp     =     159.764340 
PotEng   =     174.546858 E_bond   =      21.526116 E_angle  =      40.457424 
E_dihed  =      38.498123 E_impro  =       1.445113 E_vdwl   =      81.234153 
E_coul   =       2.731715 E_long   =     -11.345785 Press    =       7.812104
------------ Step           7800 ----- CPU =    0.7644708 (sec) -------------
TotEng   =     241.860542 KinEng   =      74.790682 Temp     =     207.361355 
PotEng   =     167.069859 E_bond   =      16.668229 E_angle  =      52.461299 
E_dihed  =      38.684033 E_impro  =       1.980946 E_vdwl   =      65.879271 
E_coul   =       2.742636 E_long   =     -11.346554 Press    =      -6.900903
------------ Step           7900 ----- CPU =    0.7745685 (sec) -------------
TotEng   =     250.552886 KinEng   =      80.234056 Temp     =     222.453415 
PotEng   =     170.318830 E_bond   =      17.883618 E_angle  =      46.156229 
E_dihed  =      31.944270 E_impro  =       1.771812 E_vdwl   =      81.200682 
E_coul   =       2.707683 E_long   =     -11.345464 Press    =      39.315762
------------ Step           8000 ----- CPU =    0.7848359 (sec) -------------
TotEng   =     256.112976 KinEng   =      73.971784 Temp     =     205.090913 
PotEng   =     182.141192 E_bond   =      26.358032 E_angle  =      49.819304 
E_dihed  =      35.710294 E_impro  =       2.332754 E_vdwl   =      76.095826 
E_coul   =       3.168243 E_long   =     -11.343260 Press    =     -18.255828
------------ Step           8100 ----- CPU =    0.7948098 (sec) -------------
TotEng   =     265.603407 KinEng   =      87.228080 Temp     =     241.844737 
PotEng   =     178.375327 E_bond   =      26.953489 E_angle  =      58.649197 
E_dihed  =      36.602511 E_impro  =       2.435251 E_vdwl   =      61.139970 
E_coul   =       3.937308 E_long   =     -11.342399 Press    =     -34.982412
------------ Step           8200 ----- CPU =    0.8048537 (sec) -------------
TotEng   =     271.688881 KinEng   =      89.116872 Temp     =     247.081519 
PotEng   =     182.572009 E_bond   =      16.185704 E_angle  =      52.409229 
E_dihed  =      37.809841 E_impro  =       1.302277 E_vdwl   =      83.311428 
E_coul   =       2.895707 E_long   =     -11.342178 Press    =      64.064915
------------ Step           8300 ----- CPU =      0.81498 (sec) -------------
TotEng   =     277.264010 KinEng   =      99.606981 Temp     =     276.165934 
PotEng   =     177.657029 E_bond   =      26.962395 E_angle  =      48.349028 
E_dihed  =      32.606044 E_impro  =       1.461682 E_vdwl   =      76.250558 
E_coul   =       3.369497 E_long   =     -11.342175 Press    =     -26.791383
------------ Step           8400 ----- CPU =    0.8250877 (sec) -------------
TotEng   =     278.639702 KinEng   =      84.435370 Temp     =     234.101793 
PotEng   =     194.204331 E_bond   =      32.263148 E_angle  =      53.462071 
E_dihed  =      41.298960 E_impro  =       3.276885 E_vdwl   =      71.964044 
E_coul   =       3.284447 E_long   =     -11.345223 Press    =     -33.605479
------------ Step           8500 ----- CPU =    0.8349301 (sec) -------------
TotEng   =     278.507208 KinEng   =      78.922838 Temp     =     218.817990 
PotEng   =     199.584369 E_bond   =      22.247120 E_angle  =      50.989279 
E_dihed  =      41.839427 E_impro  =       6.393790 E_vdwl   =      86.201017 
E_coul   =       3.260134 E_long   =     -11.346398 Press    =      30.536783
------------ Step           8600 ----- CPU =    0.8448768 (sec) -------------
TotEng   =     282.167223 KinEng   =      94.930655 Temp     =     263.200558 
PotEng   =     187.236568 E_bond   =      22.171471 E_angle  =      42.031873 
E_dihed  =      45.347331 E_impro  =       6.401212 E_vdwl   =      79.386119 
E_coul   =       3.247487 E_long   =     -11.348924 Press    =      27.011367
------------ Step           8700 ----- CPU =     0.854778 (sec) -------------
TotEng   =     287.139564 KinEng   =      75.698434 Temp     =     209.878148 
PotEng   =     211.441130 E_bond   =      35.680086 E_angle  =      57.790861 
E_dihed  =      49.556772 E_impro  =       5.583032 E_vdwl   =      71.480364 
E_coul   =       2.697530 E_long   =     -11.347515 Press    =     -43.818790
------------ Step           8800 ----- CPU =    0.8648743 (sec) -------------
TotEng   =     296.488877 KinEng   =      95.239101 Temp     =     264.055742 
PotEng   =     201.249776 E_bond   =      24.981745 E_angle  =      41.643329 
E_dihed  =      51.452560 E_impro  =       5.517426 E_vdwl   =      86.086059 
E_coul   =       2.914552 E_long   =     -11.345895 Press    =      42.153738
------------ Step           8900 ----- CPU =    0.8747171 (sec) -------------
TotEng   =     302.954819 KinEng   =     110.193068 Temp     =     305.516452 
PotEng   =     192.761751 E_bond   =      28.971480 E_angle  =      52.837469 
E_dihed  =      46.809142 E_impro  =       3.414074 E_vdwl   =      69.706264 
E_coul   =       2.371809 E_long   =     -11.348488 Press    =     -30.751601
------------ Step           9000 ----- CPU =    0.8849361 (sec) -------------
TotEng   =     305.252800 KinEng   =     118.086206 Temp     =     327.400619 
PotEng   =     187.166595 E_bond   =      25.988390 E_angle  =      58.499572 
E_dihed  =      38.274641 E_impro  =       2.130789 E_vdwl   =      70.775905 
E_coul   =       2.840714 E_long   =     -11.343416 Press    =      14.944670
------------ Step           9100 ----- CPU =    0.8946166 (sec) -------------
TotEng   =     303.364389 KinEng   =     111.706826 Temp     =     309.713432 
PotEng   =     191.657563 E_bond   =      24.685462 E_angle  =      53.744709 
E_dihed  =      40.767296 E_impro  =       4.016859 E_vdwl   =      76.398295 
E_coul   =       3.387469 E_long   =     -11.342527 Press    =      21.721911
------------ Step           9200 ----- CPU =    0.9046996 (sec) -------------
TotEng   =     298.815853 KinEng   =      93.733022 Temp     =     259.880053 
PotEng   =     205.082831 E_bond   =      36.073138 E_angle  =      55.009878 
E_dihed  =      41.265359 E_impro  =       2.108787 E_vdwl   =      79.243573 
E_coul   =       2.725940 E_long   =     -11.343843 Press    =      -4.145456
------------ Step           9300 ----- CPU =    0.9147022 (sec) -------------
TotEng   =     298.321899 KinEng   =     106.287125 Temp     =     294.687006 
PotEng   =     192.034774 E_bond   =      39.201229 E_angle  =      43.951355 
E_dihed  =      38.196309 E_impro  =       2.850549 E_vdwl   =      76.035723 
E_coul   =       3.146663 E_long   =     -11.347055 Press    =     -53.954309
------------ Step           9400 ----- CPU =    0.9247632 (sec) -------------
TotEng   =     296.021844 KinEng   =      86.346694 Temp     =     239.401045 
PotEng   =     209.675150 E_bond   =      33.748216 E_angle  =      60.988707 
E_dihed  =      35.358743 E_impro  =       2.967693 E_vdwl   =      84.512247 
E_coul   =       3.448483 E_long   =     -11.348938 Press    =       6.677395
------------ Step           9500 ----- CPU =    0.9346237 (sec) -------------
TotEng   =     292.037661 KinEng   =      99.537088 Temp     =     275.972152 
PotEng   =     192.500572 E_bond   =      34.340833 E_angle  =      68.486710 
E_dihed  =      27.112894 E_impro  =       2.219772 E_vdwl   =      69.380191 
E_coul   =       2.310364 E_long   =     -11.350192 Press    =     -41.696255
------------ Step           9600 ----- CPU =    0.9443191 (sec) -------------
TotEng   =     286.652031 KinEng   =     106.408088 Temp     =     295.022384 
PotEng   =     180.243943 E_bond   =      21.980901 E_angle  =      54.098850 
E_dihed  =      29.363766 E_impro  =       2.674931 E_vdwl   =      81.797635 
E_coul   =       1.677856 E_long   =     -11.349996 Press    =      30.168992
------------ Step           9700 ----- CPU =    0.9538461 (sec) -------------
TotEng   =     280.383658 KinEng   =      93.994737 Temp     =     260.605672 
PotEng   =     186.388921 E_bond   =      30.588437 E_angle  =      51.303304 
E_dihed  =      36.477455 E_impro  =       3.114605 E_vdwl   =      73.494796 
E_coul   =       2.761081 E_long   =     -11.350756 Press    =     -48.653058
------------ Step           9800 ----- CPU =    0.9634518 (sec) -------------
TotEng   =     278.478733 KinEng   =      82.187269 Temp     =     227.868805 
PotEng   =     196.291464 E_bond   =      27.053007 E_angle  =      57.780165 
E_dihed  =      38.400837 E_impro  =       1.224174 E_vdwl   =      79.629774 
E_coul   =       3.551141 E_long   =     -11.347633 Press    =      37.292517
------------ Step           9900 ----- CPU =    0.9732157 (sec) -------------
TotEng   =     285.248255 KinEng   =      92.301001 Temp     =     255.909694 
PotEng   =     192.947255 E_bond   =      21.397343 E_angle  =      50.242731 
E_dihed  =      44.175410 E_impro  =       4.084964 E_vdwl   =      81.856009 
E_coul   =       2.539256 E_long   =     -11.348458 Press    =      43.059350
------------ Step          10000 ----- CPU =    0.9828896 (sec) -------------
TotEng   =     296.849293 KinEng   =      98.016249 Temp     =     271.755539 
PotEng   =     198.833045 E_bond   =      25.797781 E_angle  =      59.261530 
E_dihed  =      30.884283 E_impro  =       4.127287 E_vdwl   =      87.392506 
E_coul   =       2.721662 E_long   =     -11.352004 Press    =      46.544372
Loop time of 0.982916 on 8 procs for 10000 steps with 122 atoms

Performance: 439.509 ns/day, 0.055 hours/ns, 10173.813 timesteps/s, 1.241 Matom-step/s
99.6% CPU use with 8 MPI tasks x 1 OpenMP threads

MPI task timing breakdown:
Section |  min time  |  avg time  |  max time  |%varavg| %total
---------------------------------------------------------------
Pair    | 0.0027332  | 0.045572   | 0.10955    |  18.2 |  4.64
Bond    | 0.0006345  | 0.038057   | 0.073026   |  14.9 |  3.87
Kspace  | 0.60603    | 0.65565    | 0.70319    |   4.6 | 66.70
Neigh   | 0.010379   | 0.010739   | 0.011011   |   0.2 |  1.09
Comm    | 0.13839    | 0.16981    | 0.2126     |   6.5 | 17.28
Output  | 0.0036668  | 0.0037578  | 0.0042722  |   0.3 |  0.38
Modify  | 0.019217   | 0.047052   | 0.11132    |  15.4 |  4.79
Other   |            | 0.01228    |            |       |  1.25

Nlocal:          15.25 ave          37 max           0 min
Histogram: 3 1 0 0 0 1 1 0 1 1
Nghost:          90.25 ave         120 max          57 min
Histogram: 1 1 0 0 1 2 1 0 0 2
Neighs:        411.875 ave         894 max           0 min
Histogram: 3 0 1 0 0 0 1 1 0 2

Total # of neighbors = 3295
Ave neighs/atom = 27.008197
Ave special neighs/atom = 5.7540984
Neighbor list builds = 128
Dangerous builds = 0
unfix                4
undump               1

print                .
.
print                ================================================
================================================
print                "NPT dynamics with an isotropic pressure of 1atm."
NPT dynamics with an isotropic pressure of 1atm.
print                ================================================
================================================
print                .
.

fix                  2 all nvt temp ${rtemp} ${rtemp} 100.0
fix                  2 all nvt temp 298 ${rtemp} 100.0
fix                  2 all nvt temp 298 298 100.0
thermo               100
dump                 1 all custom 100 ${sname}.npt.lammpstrj id type xu yu zu vx vy vz
dump                 1 all custom 100 params_test.npt.lammpstrj id type xu yu zu vx vy vz
run                  500000 # run for 15 ns
PPPM initialization ...
  using 12-bit tables for long-range coulomb (src/kspace.cpp:342)
  G vector (1/distance) = 0.063991812
  grid = 3 3 3
  stencil order = 5
  estimated absolute RMS force accuracy = 0.036397473
  estimated relative force accuracy = 0.00010960991
  using double precision FFTW3
  3d grid and FFT values/proc = 343 8
Generated 28 of 28 mixed pair_coeff terms from geometric mixing rule
Per MPI rank memory allocation (min/avg/max) = 14.87 | 16.07 | 16.64 Mbytes
------------ Step          10000 ----- CPU =            0 (sec) -------------
TotEng   =     296.849293 KinEng   =      98.016249 Temp     =     271.755539 
PotEng   =     198.833045 E_bond   =      25.797781 E_angle  =      59.261530 
E_dihed  =      30.884283 E_impro  =       4.127287 E_vdwl   =      87.392506 
E_coul   =       2.721662 E_long   =     -11.352004 Press    =      46.544372
------------ Step          10100 ----- CPU =  0.009738729 (sec) -------------
TotEng   =     300.218373 KinEng   =     107.655186 Temp     =     298.480032 
PotEng   =     192.563187 E_bond   =      44.235215 E_angle  =      49.794044 
E_dihed  =      29.116540 E_impro  =       1.195729 E_vdwl   =      76.077597 
E_coul   =       3.494004 E_long   =     -11.349941 Press    =     -65.414136
------------ Step          10200 ----- CPU =   0.01943304 (sec) -------------
TotEng   =     308.976546 KinEng   =      91.070317 Temp     =     252.497555 
PotEng   =     217.906229 E_bond   =      36.989228 E_angle  =      75.656388 
E_dihed  =      36.611700 E_impro  =       2.499441 E_vdwl   =      73.793215 
E_coul   =       3.701164 E_long   =     -11.344907 Press    =     -11.006295
------------ Step          10300 ----- CPU =   0.02916248 (sec) -------------
TotEng   =     318.210767 KinEng   =     107.170272 Temp     =     297.135582 
PotEng   =     211.040495 E_bond   =      31.781560 E_angle  =      67.820830 
E_dihed  =      30.409846 E_impro  =       3.625490 E_vdwl   =      85.809668 
E_coul   =       2.940403 E_long   =     -11.347303 Press    =      23.213821
------------ Step          10400 ----- CPU =    0.0389035 (sec) -------------
TotEng   =     324.571918 KinEng   =     104.355423 Temp     =     289.331255 
PotEng   =     220.216495 E_bond   =      41.754842 E_angle  =      66.366963 
E_dihed  =      32.918613 E_impro  =       1.828233 E_vdwl   =      85.065936 
E_coul   =       3.629268 E_long   =     -11.347358 Press    =     -23.446156
------------ Step          10500 ----- CPU =   0.04863064 (sec) -------------
TotEng   =     328.934294 KinEng   =     115.574323 Temp     =     320.436284 
PotEng   =     213.359971 E_bond   =      37.419063 E_angle  =      64.324052 
E_dihed  =      46.792766 E_impro  =       1.626248 E_vdwl   =      71.607834 
E_coul   =       2.935516 E_long   =     -11.345508 Press    =     -50.334246
------------ Step          10600 ----- CPU =   0.05845145 (sec) -------------
TotEng   =     332.692040 KinEng   =     125.519479 Temp     =     348.009787 
PotEng   =     207.172561 E_bond   =      25.019696 E_angle  =      60.290107 
E_dihed  =      44.285627 E_impro  =       2.613203 E_vdwl   =      83.613654 
E_coul   =       2.697481 E_long   =     -11.347208 Press    =      61.341179
------------ Step          10700 ----- CPU =   0.06817765 (sec) -------------
TotEng   =     333.086639 KinEng   =     127.089166 Temp     =     352.361829 
PotEng   =     205.997473 E_bond   =      32.770887 E_angle  =      61.693375 
E_dihed  =      39.104876 E_impro  =       4.912627 E_vdwl   =      76.651269 
E_coul   =       2.212130 E_long   =     -11.347692 Press    =     -14.388513
------------ Step          10800 ----- CPU =   0.07787078 (sec) -------------
TotEng   =     327.275218 KinEng   =     106.496605 Temp     =     295.267801 
PotEng   =     220.778613 E_bond   =      47.476438 E_angle  =      67.925330 
E_dihed  =      40.502294 E_impro  =       2.007029 E_vdwl   =      71.494809 
E_coul   =       2.719436 E_long   =     -11.346723 Press    =     -50.714596
------------ Step          10900 ----- CPU =   0.08747049 (sec) -------------
TotEng   =     318.403842 KinEng   =     104.800666 Temp     =     290.565717 
PotEng   =     213.603176 E_bond   =      40.688287 E_angle  =      60.869121 
E_dihed  =      38.799146 E_impro  =       5.687864 E_vdwl   =      75.793834 
E_coul   =       3.115319 E_long   =     -11.350394 Press    =      -5.750968
------------ Step          11000 ----- CPU =    0.0972072 (sec) -------------
TotEng   =     310.588573 KinEng   =     101.673412 Temp     =     281.895229 
PotEng   =     208.915161 E_bond   =      29.472309 E_angle  =      51.117309 
E_dihed  =      40.275627 E_impro  =       1.978860 E_vdwl   =      94.464669 
E_coul   =       2.953522 E_long   =     -11.347135 Press    =      72.500355
------------ Step          11100 ----- CPU =    0.1069708 (sec) -------------
TotEng   =     305.931544 KinEng   =      97.993541 Temp     =     271.692582 
PotEng   =     207.938003 E_bond   =      30.831325 E_angle  =      63.779770 
E_dihed  =      44.456573 E_impro  =       2.231626 E_vdwl   =      75.039682 
E_coul   =       2.945521 E_long   =     -11.346494 Press    =      19.104019
------------ Step          11200 ----- CPU =    0.1166054 (sec) -------------
TotEng   =     305.524615 KinEng   =      91.997173 Temp     =     255.067315 
PotEng   =     213.527442 E_bond   =      30.584027 E_angle  =      60.511631 
E_dihed  =      49.921728 E_impro  =       7.164099 E_vdwl   =      74.131265 
E_coul   =       2.557943 E_long   =     -11.343253 Press    =     -14.819432
------------ Step          11300 ----- CPU =    0.1262889 (sec) -------------
TotEng   =     309.512023 KinEng   =      98.597347 Temp     =     273.366667 
PotEng   =     210.914675 E_bond   =      38.694282 E_angle  =      61.581268 
E_dihed  =      43.275420 E_impro  =       4.049445 E_vdwl   =      72.058343 
E_coul   =       2.599770 E_long   =     -11.343853 Press    =       8.514163
------------ Step          11400 ----- CPU =    0.1359178 (sec) -------------
TotEng   =     315.819634 KinEng   =     103.350220 Temp     =     286.544274 
PotEng   =     212.469414 E_bond   =      38.358173 E_angle  =      52.917144 
E_dihed  =      35.385559 E_impro  =       5.643723 E_vdwl   =      88.077153 
E_coul   =       3.428805 E_long   =     -11.341143 Press    =     -16.181873
------------ Step          11500 ----- CPU =    0.1455691 (sec) -------------
TotEng   =     320.355435 KinEng   =     116.079627 Temp     =     321.837267 
PotEng   =     204.275808 E_bond   =      34.545553 E_angle  =      63.684888 
E_dihed  =      36.683146 E_impro  =       3.908347 E_vdwl   =      74.483472 
E_coul   =       2.318550 E_long   =     -11.348148 Press    =      25.427676
------------ Step          11600 ----- CPU =    0.1551812 (sec) -------------
TotEng   =     321.752338 KinEng   =     105.238182 Temp     =     291.778754 
PotEng   =     216.514156 E_bond   =      34.412687 E_angle  =      66.554145 
E_dihed  =      40.276004 E_impro  =       2.265403 E_vdwl   =      81.711738 
E_coul   =       2.642902 E_long   =     -11.348724 Press    =      -0.096299
------------ Step          11700 ----- CPU =    0.1648599 (sec) -------------
TotEng   =     321.896645 KinEng   =     113.061732 Temp     =     313.469983 
PotEng   =     208.834913 E_bond   =      32.930393 E_angle  =      60.811861 
E_dihed  =      47.200566 E_impro  =       1.332727 E_vdwl   =      75.522259 
E_coul   =       2.384469 E_long   =     -11.347361 Press    =      17.197014
------------ Step          11800 ----- CPU =    0.1743543 (sec) -------------
TotEng   =     321.419925 KinEng   =     120.461848 Temp     =     333.987220 
PotEng   =     200.958078 E_bond   =      44.350351 E_angle  =      52.297402 
E_dihed  =      38.980740 E_impro  =       3.338970 E_vdwl   =      70.480825 
E_coul   =       2.859519 E_long   =     -11.349731 Press    =     -54.052492
------------ Step          11900 ----- CPU =    0.1840125 (sec) -------------
TotEng   =     319.276361 KinEng   =      99.352620 Temp     =     275.460703 
PotEng   =     219.923741 E_bond   =      35.108259 E_angle  =      58.885225 
E_dihed  =      36.545889 E_impro  =       6.220825 E_vdwl   =      90.988538 
E_coul   =       3.527611 E_long   =     -11.352606 Press    =      28.811104
------------ Step          12000 ----- CPU =    0.1936999 (sec) -------------
TotEng   =     317.745217 KinEng   =     104.801036 Temp     =     290.566741 
PotEng   =     212.944181 E_bond   =      39.326579 E_angle  =      63.581796 
E_dihed  =      37.539684 E_impro  =       2.767869 E_vdwl   =      78.540575 
E_coul   =       2.542234 E_long   =     -11.354555 Press    =      -0.379340
------------ Step          12100 ----- CPU =    0.2033774 (sec) -------------
TotEng   =     317.627850 KinEng   =     106.398209 Temp     =     294.994994 
PotEng   =     211.229641 E_bond   =      40.516726 E_angle  =      61.415345 
E_dihed  =      41.611299 E_impro  =       1.707785 E_vdwl   =      75.280305 
E_coul   =       2.052313 E_long   =     -11.354132 Press    =     -10.594093
------------ Step          12200 ----- CPU =    0.2128992 (sec) -------------
TotEng   =     320.836483 KinEng   =     113.674911 Temp     =     315.170057 
PotEng   =     207.161572 E_bond   =      32.016247 E_angle  =      56.525129 
E_dihed  =      35.348081 E_impro  =       4.961928 E_vdwl   =      87.761672 
E_coul   =       1.901731 E_long   =     -11.353216 Press    =      25.335839
------------ Step          12300 ----- CPU =    0.2224071 (sec) -------------
TotEng   =     324.298631 KinEng   =     126.429990 Temp     =     350.534229 
PotEng   =     197.868641 E_bond   =      28.055116 E_angle  =      59.875457 
E_dihed  =      40.768225 E_impro  =       5.148889 E_vdwl   =      73.324805 
E_coul   =       2.045446 E_long   =     -11.349298 Press    =      29.688362
------------ Step          12400 ----- CPU =      0.23194 (sec) -------------
TotEng   =     324.606333 KinEng   =     105.725453 Temp     =     293.129740 
PotEng   =     218.880880 E_bond   =      43.336033 E_angle  =      79.303169 
E_dihed  =      28.228181 E_impro  =       3.207253 E_vdwl   =      73.704717 
E_coul   =       2.446906 E_long   =     -11.345378 Press    =     -33.074590
------------ Step          12500 ----- CPU =    0.2415111 (sec) -------------
TotEng   =     325.222122 KinEng   =     115.949614 Temp     =     321.476799 
PotEng   =     209.272508 E_bond   =      36.108710 E_angle  =      72.528582 
E_dihed  =      29.744467 E_impro  =       5.003377 E_vdwl   =      75.132454 
E_coul   =       2.101816 E_long   =     -11.346897 Press    =      -9.463232
------------ Step          12600 ----- CPU =    0.2510908 (sec) -------------
TotEng   =     323.395815 KinEng   =     112.303585 Temp     =     311.367980 
PotEng   =     211.092230 E_bond   =      34.884710 E_angle  =      73.751105 
E_dihed  =      34.723513 E_impro  =       3.552929 E_vdwl   =      74.276708 
E_coul   =       1.252107 E_long   =     -11.348843 Press    =      -0.027683
------------ Step          12700 ----- CPU =    0.2607763 (sec) -------------
TotEng   =     319.187712 KinEng   =     108.147224 Temp     =     299.844234 
PotEng   =     211.040489 E_bond   =      49.166573 E_angle  =      62.462485 
E_dihed  =      37.772877 E_impro  =       3.516874 E_vdwl   =      67.028806 
E_coul   =       2.442941 E_long   =     -11.350067 Press    =     -75.272375
------------ Step          12800 ----- CPU =    0.2703215 (sec) -------------
TotEng   =     312.164745 KinEng   =     112.292072 Temp     =     311.336059 
PotEng   =     199.872673 E_bond   =      32.534225 E_angle  =      55.238173 
E_dihed  =      36.675138 E_impro  =       2.566389 E_vdwl   =      81.619323 
E_coul   =       2.585084 E_long   =     -11.345659 Press    =      31.900453
------------ Step          12900 ----- CPU =    0.2797913 (sec) -------------
TotEng   =     307.513672 KinEng   =     104.776821 Temp     =     290.499606 
PotEng   =     202.736850 E_bond   =      34.639847 E_angle  =      51.266089 
E_dihed  =      38.381547 E_impro  =       2.184316 E_vdwl   =      84.973741 
E_coul   =       2.637329 E_long   =     -11.346019 Press    =      -9.908529
------------ Step          13000 ----- CPU =    0.2894341 (sec) -------------
TotEng   =     303.634440 KinEng   =     105.623719 Temp     =     292.847677 
PotEng   =     198.010721 E_bond   =      35.430544 E_angle  =      56.019357 
E_dihed  =      43.143853 E_impro  =       1.740708 E_vdwl   =      69.729589 
E_coul   =       3.294723 E_long   =     -11.348053 Press    =      16.251027
------------ Step          13100 ----- CPU =    0.2989918 (sec) -------------
TotEng   =     301.628864 KinEng   =      84.547821 Temp     =     234.413570 
PotEng   =     217.081042 E_bond   =      39.793265 E_angle  =      61.988884 
E_dihed  =      49.491505 E_impro  =       2.983483 E_vdwl   =      71.965740 
E_coul   =       2.207419 E_long   =     -11.349255 Press    =     -25.301927
------------ Step          13200 ----- CPU =    0.3086656 (sec) -------------
TotEng   =     305.853436 KinEng   =     104.225631 Temp     =     288.971400 
PotEng   =     201.627804 E_bond   =      33.236222 E_angle  =      56.644606 
E_dihed  =      44.798326 E_impro  =       2.363203 E_vdwl   =      74.079263 
E_coul   =       1.855375 E_long   =     -11.349191 Press    =      75.029297
------------ Step          13300 ----- CPU =    0.3182708 (sec) -------------
TotEng   =     315.751494 KinEng   =      97.322659 Temp     =     269.832524 
PotEng   =     218.428835 E_bond   =      51.866206 E_angle  =      56.373899 
E_dihed  =      41.326562 E_impro  =       2.907632 E_vdwl   =      74.856329 
E_coul   =       2.443486 E_long   =     -11.345279 Press    =     -91.300996
------------ Step          13400 ----- CPU =    0.3280006 (sec) -------------
TotEng   =     325.855346 KinEng   =     116.143797 Temp     =     322.015183 
PotEng   =     209.711549 E_bond   =      27.965788 E_angle  =      54.602004 
E_dihed  =      35.949931 E_impro  =       5.158313 E_vdwl   =      95.490233 
E_coul   =       1.892290 E_long   =     -11.347010 Press    =     145.612252
------------ Step          13500 ----- CPU =    0.3376075 (sec) -------------
TotEng   =     329.193897 KinEng   =     112.242554 Temp     =     311.198768 
PotEng   =     216.951343 E_bond   =      36.679253 E_angle  =      66.445987 
E_dihed  =      46.851992 E_impro  =       3.633713 E_vdwl   =      73.071927 
E_coul   =       1.617805 E_long   =     -11.349334 Press    =     -24.056544
------------ Step          13600 ----- CPU =    0.3472582 (sec) -------------
TotEng   =     328.921814 KinEng   =     106.437050 Temp     =     295.102682 
PotEng   =     222.484764 E_bond   =      54.100702 E_angle  =      62.016648 
E_dihed  =      37.847025 E_impro  =       3.328333 E_vdwl   =      74.260634 
E_coul   =       2.281138 E_long   =     -11.349716 Press    =     -44.897982
------------ Step          13700 ----- CPU =    0.3568661 (sec) -------------
TotEng   =     326.922646 KinEng   =     102.612645 Temp     =     284.499305 
PotEng   =     224.310001 E_bond   =      36.614433 E_angle  =      66.885459 
E_dihed  =      37.807391 E_impro  =       5.671881 E_vdwl   =      86.935995 
E_coul   =       1.746608 E_long   =     -11.351766 Press    =      29.491084
------------ Step          13800 ----- CPU =    0.3663519 (sec) -------------
TotEng   =     325.531379 KinEng   =     108.371580 Temp     =     300.466275 
PotEng   =     217.159799 E_bond   =      39.255769 E_angle  =      64.726845 
E_dihed  =      40.431016 E_impro  =       2.411276 E_vdwl   =      78.987928 
E_coul   =       2.699229 E_long   =     -11.352263 Press    =      34.482944
------------ Step          13900 ----- CPU =    0.3756395 (sec) -------------
TotEng   =     323.284583 KinEng   =     102.870408 Temp     =     285.213967 
PotEng   =     220.414175 E_bond   =      51.754175 E_angle  =      61.885578 
E_dihed  =      33.788574 E_impro  =       4.710000 E_vdwl   =      76.905580 
E_coul   =       2.722600 E_long   =     -11.352333 Press    =     -41.934131
------------ Step          14000 ----- CPU =    0.3850081 (sec) -------------
TotEng   =     319.916895 KinEng   =     109.463266 Temp     =     303.493035 
PotEng   =     210.453629 E_bond   =      38.234977 E_angle  =      69.257898 
E_dihed  =      31.077623 E_impro  =       2.759503 E_vdwl   =      78.248839 
E_coul   =       2.225720 E_long   =     -11.350931 Press    =      28.336864
------------ Step          14100 ----- CPU =    0.3944067 (sec) -------------
TotEng   =     311.936324 KinEng   =      98.330668 Temp     =     272.627284 
PotEng   =     213.605656 E_bond   =      35.256142 E_angle  =      64.217920 
E_dihed  =      38.240678 E_impro  =       3.387720 E_vdwl   =      80.764897 
E_coul   =       3.088695 E_long   =     -11.350396 Press    =       8.427721
------------ Step          14200 ----- CPU =    0.4038159 (sec) -------------
TotEng   =     300.275578 KinEng   =      87.404690 Temp     =     242.334399 
PotEng   =     212.870887 E_bond   =      35.291986 E_angle  =      71.396663 
E_dihed  =      33.118785 E_impro  =       3.623740 E_vdwl   =      77.510098 
E_coul   =       3.276216 E_long   =     -11.346600 Press    =      21.090018
------------ Step          14300 ----- CPU =    0.4132238 (sec) -------------
TotEng   =     296.294424 KinEng   =      99.461828 Temp     =     275.763490 
PotEng   =     196.832595 E_bond   =      32.067538 E_angle  =      64.618854 
E_dihed  =      31.994097 E_impro  =       3.314952 E_vdwl   =      73.197752 
[...]
E_dihed  =      24.990341 E_impro  =       1.835705 E_vdwl   =      73.202442 
E_coul   =       2.512308 E_long   =     -11.351724 Press    =      -1.798450
------------ Step         505400 ----- CPU =     48.23697 (sec) -------------
TotEng   =     313.422112 KinEng   =     101.371145 Temp     =     281.057176 
PotEng   =     212.050967 E_bond   =      53.415207 E_angle  =      64.378906 
E_dihed  =      25.910224 E_impro  =       1.634201 E_vdwl   =      75.808708 
E_coul   =       2.255844 E_long   =     -11.352124 Press    =       0.629590
------------ Step         505500 ----- CPU =     48.24749 (sec) -------------
TotEng   =     328.001542 KinEng   =      99.874175 Temp     =     276.906743 
PotEng   =     228.127367 E_bond   =      55.733121 E_angle  =      75.288271 
E_dihed  =      30.718211 E_impro  =       3.528515 E_vdwl   =      71.030674 
E_coul   =       3.180427 E_long   =     -11.351850 Press    =     -15.846694
------------ Step         505600 ----- CPU =     48.25789 (sec) -------------
TotEng   =     335.799043 KinEng   =     106.556293 Temp     =     295.433290 
PotEng   =     229.242750 E_bond   =      52.140958 E_angle  =      69.241464 
E_dihed  =      34.518741 E_impro  =       3.050029 E_vdwl   =      78.842988 
E_coul   =       2.799994 E_long   =     -11.351425 Press    =      -8.963591
------------ Step         505700 ----- CPU =     48.26808 (sec) -------------
TotEng   =     337.513967 KinEng   =     108.963346 Temp     =     302.106978 
PotEng   =     228.550622 E_bond   =      57.144454 E_angle  =      66.556700 
E_dihed  =      40.092141 E_impro  =       2.589293 E_vdwl   =      70.465676 
E_coul   =       3.053437 E_long   =     -11.351079 Press    =      10.553385
------------ Step         505800 ----- CPU =     48.27834 (sec) -------------
TotEng   =     335.891937 KinEng   =     103.562653 Temp     =     287.133255 
PotEng   =     232.329284 E_bond   =      58.845111 E_angle  =      74.296947 
E_dihed  =      29.994210 E_impro  =       3.875364 E_vdwl   =      72.591287 
E_coul   =       4.073598 E_long   =     -11.347232 Press    =     -28.747828
------------ Step         505900 ----- CPU =     48.28862 (sec) -------------
TotEng   =     330.083108 KinEng   =     115.406364 Temp     =     319.970608 
PotEng   =     214.676744 E_bond   =      60.825407 E_angle  =      53.190459 
E_dihed  =      32.321030 E_impro  =       2.450753 E_vdwl   =      74.322294 
E_coul   =       2.914387 E_long   =     -11.347586 Press    =      18.988238
------------ Step         506000 ----- CPU =     48.29893 (sec) -------------
TotEng   =     321.152922 KinEng   =     106.722652 Temp     =     295.894529 
PotEng   =     214.430271 E_bond   =      58.798007 E_angle  =      53.904242 
E_dihed  =      30.861145 E_impro  =       1.860353 E_vdwl   =      78.205351 
E_coul   =       2.147739 E_long   =     -11.346567 Press    =      -6.197628
------------ Step         506100 ----- CPU =     48.30925 (sec) -------------
TotEng   =     313.873223 KinEng   =     112.321844 Temp     =     311.418603 
PotEng   =     201.551379 E_bond   =      53.605465 E_angle  =      53.160376 
E_dihed  =      25.086662 E_impro  =       3.575456 E_vdwl   =      74.764357 
E_coul   =       2.703605 E_long   =     -11.344542 Press    =      43.181833
------------ Step         506200 ----- CPU =      48.3195 (sec) -------------
TotEng   =     310.234779 KinEng   =     111.485268 Temp     =     309.099149 
PotEng   =     198.749511 E_bond   =      48.362173 E_angle  =      58.803706 
E_dihed  =      26.911750 E_impro  =       1.328949 E_vdwl   =      72.441823 
E_coul   =       2.250028 E_long   =     -11.348917 Press    =     -33.162669
------------ Step         506300 ----- CPU =     48.32969 (sec) -------------
TotEng   =     309.982218 KinEng   =     113.152746 Temp     =     313.722326 
PotEng   =     196.829472 E_bond   =      43.432779 E_angle  =      55.074382 
E_dihed  =      33.305318 E_impro  =       4.994343 E_vdwl   =      69.081037 
E_coul   =       2.290023 E_long   =     -11.348412 Press    =      -1.709321
------------ Step         506400 ----- CPU =     48.33995 (sec) -------------
TotEng   =     312.162923 KinEng   =      98.388985 Temp     =     272.788973 
PotEng   =     213.773938 E_bond   =      51.174524 E_angle  =      66.570015 
E_dihed  =      26.963972 E_impro  =       3.720389 E_vdwl   =      73.895659 
E_coul   =       2.798652 E_long   =     -11.349273 Press    =     -26.996283
------------ Step         506500 ----- CPU =     48.35016 (sec) -------------
TotEng   =     314.992254 KinEng   =     104.501544 Temp     =     289.736383 
PotEng   =     210.490710 E_bond   =      45.229296 E_angle  =      62.823572 
E_dihed  =      29.307850 E_impro  =       2.739177 E_vdwl   =      79.711699 
E_coul   =       2.026887 E_long   =     -11.347769 Press    =      20.579302
------------ Step         506600 ----- CPU =     48.36029 (sec) -------------
TotEng   =     319.328421 KinEng   =     104.171152 Temp     =     288.820352 
PotEng   =     215.157269 E_bond   =      61.617397 E_angle  =      61.631704 
E_dihed  =      26.753636 E_impro  =       3.912622 E_vdwl   =      70.553842 
E_coul   =       2.036732 E_long   =     -11.348664 Press    =     -31.515113
------------ Step         506700 ----- CPU =     48.37058 (sec) -------------
TotEng   =     321.842629 KinEng   =     117.666326 Temp     =     326.236478 
PotEng   =     204.176303 E_bond   =      52.177504 E_angle  =      63.878968 
E_dihed  =      24.026588 E_impro  =       2.268776 E_vdwl   =      71.467599 
E_coul   =       1.705821 E_long   =     -11.348953 Press    =      16.565749
------------ Step         506800 ----- CPU =      48.3809 (sec) -------------
TotEng   =     321.375211 KinEng   =     111.949382 Temp     =     310.385933 
PotEng   =     209.425828 E_bond   =      48.904640 E_angle  =      57.300206 
E_dihed  =      23.865126 E_impro  =       4.909243 E_vdwl   =      83.701339 
E_coul   =       2.094182 E_long   =     -11.348907 Press    =      11.825816
------------ Step         506900 ----- CPU =     48.39121 (sec) -------------
TotEng   =     320.167778 KinEng   =     107.957774 Temp     =     299.318974 
PotEng   =     212.210004 E_bond   =      58.088257 E_angle  =      63.104255 
E_dihed  =      23.808713 E_impro  =       1.251081 E_vdwl   =      75.089518 
E_coul   =       2.219047 E_long   =     -11.350867 Press    =      -2.157535
------------ Step         507000 ----- CPU =     48.40168 (sec) -------------
TotEng   =     318.859900 KinEng   =      97.946158 Temp     =     271.561209 
PotEng   =     220.913742 E_bond   =      47.497253 E_angle  =      68.957700 
E_dihed  =      33.141954 E_impro  =       3.720382 E_vdwl   =      77.132839 
E_coul   =       1.817892 E_long   =     -11.354277 Press    =      19.520996
------------ Step         507100 ----- CPU =     48.41204 (sec) -------------
TotEng   =     317.459451 KinEng   =      95.193411 Temp     =     263.929063 
PotEng   =     222.266040 E_bond   =      52.776374 E_angle  =      65.816258 
E_dihed  =      29.502463 E_impro  =       3.753738 E_vdwl   =      80.202168 
E_coul   =       1.570140 E_long   =     -11.355102 Press    =      43.555225
------------ Step         507200 ----- CPU =     48.42237 (sec) -------------
TotEng   =     313.966301 KinEng   =     105.844415 Temp     =     293.459569 
PotEng   =     208.121886 E_bond   =      51.762738 E_angle  =      55.807789 
E_dihed  =      31.074203 E_impro  =       3.591877 E_vdwl   =      75.819787 
E_coul   =       1.418344 E_long   =     -11.352853 Press    =      -7.265590
------------ Step         507300 ----- CPU =     48.43273 (sec) -------------
TotEng   =     304.354861 KinEng   =     105.613039 Temp     =     292.818067 
PotEng   =     198.741821 E_bond   =      52.149312 E_angle  =      58.846397 
E_dihed  =      27.439283 E_impro  =       3.096121 E_vdwl   =      67.446654 
E_coul   =       1.115126 E_long   =     -11.351072 Press    =     -51.276262
------------ Step         507400 ----- CPU =     48.44309 (sec) -------------
TotEng   =     297.011911 KinEng   =      98.970208 Temp     =     274.400445 
PotEng   =     198.041702 E_bond   =      39.239872 E_angle  =      60.477482 
E_dihed  =      29.794759 E_impro  =       2.325438 E_vdwl   =      75.640106 
E_coul   =       1.916201 E_long   =     -11.352155 Press    =      54.839591
------------ Step         507500 ----- CPU =     48.45321 (sec) -------------
TotEng   =     295.240604 KinEng   =      99.456834 Temp     =     275.749641 
PotEng   =     195.783770 E_bond   =      44.872354 E_angle  =      51.994208 
E_dihed  =      25.432417 E_impro  =       2.583387 E_vdwl   =      80.016228 
E_coul   =       2.237783 E_long   =     -11.352607 Press    =      -2.541804
------------ Step         507600 ----- CPU =     48.46334 (sec) -------------
TotEng   =     298.255220 KinEng   =      93.083779 Temp     =     258.079990 
PotEng   =     205.171441 E_bond   =      51.252466 E_angle  =      60.045319 
E_dihed  =      23.395451 E_impro  =       4.498656 E_vdwl   =      75.149539 
E_coul   =       2.183426 E_long   =     -11.353416 Press    =      -9.162172
------------ Step         507700 ----- CPU =      48.4732 (sec) -------------
TotEng   =     307.013076 KinEng   =     102.890337 Temp     =     285.269222 
PotEng   =     204.122739 E_bond   =      46.581649 E_angle  =      55.210787 
E_dihed  =      26.060972 E_impro  =       3.407794 E_vdwl   =      81.364781 
E_coul   =       2.849761 E_long   =     -11.353006 Press    =      22.387851
------------ Step         507800 ----- CPU =     48.48316 (sec) -------------
TotEng   =     315.277015 KinEng   =      89.188675 Temp     =     247.280595 
PotEng   =     226.088340 E_bond   =      45.736915 E_angle  =      71.611087 
E_dihed  =      31.925256 E_impro  =       4.953665 E_vdwl   =      80.855145 
E_coul   =       2.358889 E_long   =     -11.352616 Press    =      31.530042
------------ Step         507900 ----- CPU =      48.4931 (sec) -------------
TotEng   =     320.614251 KinEng   =     109.465249 Temp     =     303.498535 
PotEng   =     211.149002 E_bond   =      48.471081 E_angle  =      65.021038 
E_dihed  =      34.506439 E_impro  =       1.873016 E_vdwl   =      70.080861 
E_coul   =       2.547076 E_long   =     -11.350508 Press    =      11.619046
------------ Step         508000 ----- CPU =      48.5031 (sec) -------------
TotEng   =     324.346023 KinEng   =     106.714564 Temp     =     295.872105 
PotEng   =     217.631459 E_bond   =      57.130987 E_angle  =      54.495884 
E_dihed  =      42.318697 E_impro  =       4.243653 E_vdwl   =      68.627770 
E_coul   =       2.164698 E_long   =     -11.350230 Press    =     -34.562858
------------ Step         508100 ----- CPU =     48.51319 (sec) -------------
TotEng   =     327.110732 KinEng   =     113.568317 Temp     =     314.874519 
PotEng   =     213.542415 E_bond   =      43.137864 E_angle  =      63.662224 
E_dihed  =      31.478579 E_impro  =       2.209863 E_vdwl   =      82.225422 
E_coul   =       2.178358 E_long   =     -11.349896 Press    =      55.816167
------------ Step         508200 ----- CPU =     48.52315 (sec) -------------
TotEng   =     327.362627 KinEng   =      94.236138 Temp     =     261.274970 
PotEng   =     233.126489 E_bond   =      59.296174 E_angle  =      76.167162 
E_dihed  =      28.482607 E_impro  =       2.913182 E_vdwl   =      76.033255 
E_coul   =       1.585289 E_long   =     -11.351179 Press    =     -18.342775
------------ Step         508300 ----- CPU =     48.53318 (sec) -------------
TotEng   =     324.176640 KinEng   =     104.157421 Temp     =     288.782284 
PotEng   =     220.019219 E_bond   =      57.325175 E_angle  =      71.264217 
E_dihed  =      23.807600 E_impro  =       4.639746 E_vdwl   =      72.702045 
E_coul   =       1.632566 E_long   =     -11.352132 Press    =     -45.424660
------------ Step         508400 ----- CPU =     48.54313 (sec) -------------
TotEng   =     316.540443 KinEng   =     106.141343 Temp     =     294.282817 
PotEng   =     210.399100 E_bond   =      58.649514 E_angle  =      60.942146 
E_dihed  =      25.238648 E_impro  =       2.755037 E_vdwl   =      72.019528 
E_coul   =       2.145314 E_long   =     -11.351087 Press    =     -17.557162
------------ Step         508500 ----- CPU =     48.55291 (sec) -------------
TotEng   =     304.952308 KinEng   =     107.850901 Temp     =     299.022663 
PotEng   =     197.101407 E_bond   =      46.989436 E_angle  =      58.041291 
E_dihed  =      27.380910 E_impro  =       2.621945 E_vdwl   =      71.288655 
E_coul   =       2.128610 E_long   =     -11.349441 Press    =       2.066033
------------ Step         508600 ----- CPU =     48.56285 (sec) -------------
TotEng   =     298.897338 KinEng   =     107.057185 Temp     =     296.822041 
PotEng   =     191.840153 E_bond   =      45.835699 E_angle  =      50.190749 
E_dihed  =      28.561260 E_impro  =       2.736426 E_vdwl   =      73.063865 
E_coul   =       2.801867 E_long   =     -11.349712 Press    =      15.306324
------------ Step         508700 ----- CPU =      48.5726 (sec) -------------
TotEng   =     297.828368 KinEng   =      93.921972 Temp     =     260.403927 
PotEng   =     203.906396 E_bond   =      40.065470 E_angle  =      68.179827 
E_dihed  =      29.586764 E_impro  =       2.835585 E_vdwl   =      72.228594 
E_coul   =       2.358879 E_long   =     -11.348723 Press    =      15.087387
------------ Step         508800 ----- CPU =     48.58233 (sec) -------------
TotEng   =     301.018029 KinEng   =     101.062993 Temp     =     280.202809 
PotEng   =     199.955036 E_bond   =      37.746128 E_angle  =      63.467376 
E_dihed  =      22.809669 E_impro  =       2.389299 E_vdwl   =      82.438486 
E_coul   =       2.451083 E_long   =     -11.347006 Press    =      49.281778
------------ Step         508900 ----- CPU =     48.59216 (sec) -------------
TotEng   =     306.813064 KinEng   =      98.805443 Temp     =     273.943624 
PotEng   =     208.007622 E_bond   =      57.371675 E_angle  =      56.131925 
E_dihed  =      25.770588 E_impro  =       2.005774 E_vdwl   =      75.723359 
E_coul   =       2.351780 E_long   =     -11.347480 Press    =     -39.799353
------------ Step         509000 ----- CPU =     48.60203 (sec) -------------
TotEng   =     311.641418 KinEng   =     102.534229 Temp     =     284.281893 
PotEng   =     209.107189 E_bond   =      53.314869 E_angle  =      60.560794 
E_dihed  =      30.202024 E_impro  =       2.888552 E_vdwl   =      71.390642 
E_coul   =       2.098746 E_long   =     -11.348439 Press    =      12.310966
------------ Step         509100 ----- CPU =       48.612 (sec) -------------
TotEng   =     316.727285 KinEng   =      98.496445 Temp     =     273.086910 
PotEng   =     218.230840 E_bond   =      53.824237 E_angle  =      67.538584 
E_dihed  =      29.141869 E_impro  =       2.639995 E_vdwl   =      74.548038 
E_coul   =       1.886255 E_long   =     -11.348140 Press    =     -33.945346
------------ Step         509200 ----- CPU =     48.62202 (sec) -------------
TotEng   =     320.568754 KinEng   =     106.786200 Temp     =     296.070721 
PotEng   =     213.782554 E_bond   =      57.491431 E_angle  =      55.807604 
E_dihed  =      36.104320 E_impro  =       1.880622 E_vdwl   =      71.792035 
E_coul   =       2.054456 E_long   =     -11.347916 Press    =       7.170684
------------ Step         509300 ----- CPU =     48.63188 (sec) -------------
TotEng   =     323.030266 KinEng   =     107.135154 Temp     =     297.038215 
PotEng   =     215.895112 E_bond   =      46.482794 E_angle  =      71.236012 
E_dihed  =      30.921410 E_impro  =       2.233103 E_vdwl   =      74.413322 
E_coul   =       1.955071 E_long   =     -11.346599 Press    =      -9.653341
------------ Step         509400 ----- CPU =      48.6416 (sec) -------------
TotEng   =     324.329002 KinEng   =     110.867811 Temp     =     307.387214 
PotEng   =     213.461191 E_bond   =      40.574480 E_angle  =      71.517628 
E_dihed  =      25.262324 E_impro  =       3.846655 E_vdwl   =      80.959990 
E_coul   =       2.647770 E_long   =     -11.347655 Press    =      22.092001
------------ Step         509500 ----- CPU =     48.65169 (sec) -------------
TotEng   =     323.034449 KinEng   =     110.034759 Temp     =     305.077531 
PotEng   =     212.999690 E_bond   =      58.528053 E_angle  =      63.091868 
E_dihed  =      28.416400 E_impro  =       1.335709 E_vdwl   =      70.959648 
E_coul   =       2.015358 E_long   =     -11.347346 Press    =     -32.997039
------------ Step         509600 ----- CPU =     48.66171 (sec) -------------
TotEng   =     320.260794 KinEng   =     114.458818 Temp     =     317.343483 
PotEng   =     205.801976 E_bond   =      48.416476 E_angle  =      66.307143 
E_dihed  =      24.444952 E_impro  =       2.205993 E_vdwl   =      73.874232 
E_coul   =       1.899475 E_long   =     -11.346296 Press    =      51.947713
------------ Step         509700 ----- CPU =      48.6716 (sec) -------------
TotEng   =     315.755316 KinEng   =     105.278170 Temp     =     291.889623 
PotEng   =     210.477146 E_bond   =      51.802086 E_angle  =      65.103208 
E_dihed  =      24.291954 E_impro  =       2.622758 E_vdwl   =      74.842505 
E_coul   =       3.158816 E_long   =     -11.344181 Press    =     -43.234320
------------ Step         509800 ----- CPU =     48.68139 (sec) -------------
TotEng   =     305.892663 KinEng   =      93.088792 Temp     =     258.093891 
PotEng   =     212.803871 E_bond   =      47.867877 E_angle  =      64.858314 
E_dihed  =      31.192284 E_impro  =       1.579203 E_vdwl   =      76.015573 
E_coul   =       2.633632 E_long   =     -11.343012 Press    =      14.348986
------------ Step         509900 ----- CPU =     48.69138 (sec) -------------
TotEng   =     299.586792 KinEng   =      81.200849 Temp     =     225.133902 
PotEng   =     218.385943 E_bond   =      48.494835 E_angle  =      65.374466 
E_dihed  =      29.731184 E_impro  =       2.407890 E_vdwl   =      81.385224 
E_coul   =       2.336119 E_long   =     -11.343775 Press    =      36.585269
------------ Step         510000 ----- CPU =     48.70115 (sec) -------------
TotEng   =     298.297138 KinEng   =      93.751558 Temp     =     259.931445 
PotEng   =     204.545580 E_bond   =      52.711345 E_angle  =      60.837039 
E_dihed  =      25.438523 E_impro  =       2.347034 E_vdwl   =      72.356600 
E_coul   =       2.199255 E_long   =     -11.344217 Press    =       7.512529
Loop time of 48.7012 on 8 procs for 500000 steps with 122 atoms

Performance: 443.521 ns/day, 0.054 hours/ns, 10266.691 timesteps/s, 1.253 Matom-step/s
99.6% CPU use with 8 MPI tasks x 1 OpenMP threads

MPI task timing breakdown:
Section |  min time  |  avg time  |  max time  |%varavg| %total
---------------------------------------------------------------
Pair    | 0.12667    | 2.3937     | 4.9043     | 118.2 |  4.92
Bond    | 0.031968   | 1.9252     | 4.3479     | 114.7 |  3.95
Kspace  | 29.261     | 32.157     | 34.724     |  34.7 | 66.03
Neigh   | 0.36865    | 0.38212    | 0.3918     |   1.3 |  0.78
Comm    | 6.5205     | 8.1696     | 10.673     |  49.5 | 16.77
Output  | 0.61216    | 0.62579    | 0.71177    |   4.1 |  1.28
Modify  | 0.89629    | 2.4501     | 5.7359     | 115.0 |  5.03
Other   |            | 0.5977     |            |       |  1.23

Nlocal:          15.25 ave          39 max           0 min
Histogram: 3 1 0 0 0 1 2 0 0 1
Nghost:          89.75 ave         120 max          61 min
Histogram: 1 1 0 1 2 1 0 0 0 2
Neighs:         380.75 ave        1011 max           0 min
Histogram: 4 0 0 1 0 0 0 1 1 1

Total # of neighbors = 3046
Ave neighs/atom = 24.967213
Ave special neighs/atom = 5.7540984
Neighbor list builds = 4822
Dangerous builds = 0
unfix                2
undump               1
Total wall time: 0:00:49
