ITEM: TIMESTEP
0
ITEM: NUMBER OF ATOMS
122
ITEM: BOX BOUNDS pp pp pp
0.0000000000000000e+00 6.0000000000000000e+01
0.0000000000000000e+00 6.0000000000000000e+01
0.0000000000000000e+00 6.0000000000000000e+01
ITEM: ATOMS id type xu yu zu vx vy vz
13 3 29.6889 31.1166 47.4242 -0 -0 -0
41 6 28.8739 30.9458 46.8283 -0 0 -0
2 1 22.9473 32.3942 53.3578 0 0 0
32 6 22.7087 34.5374 53.7253 0 0 0
35 6 22.1869 32.562 52.59 -0 -0 -0
3 1 24.2717 31.9314 52.727 0 -0 0
4 2 25.3634 32.5757 53.5095 -0 -0 -0
5 3 26.6874 32.5509 52.9295 0 -0 -0
6 3 27.6347 33.5862 53.1409 -0 -0 -0
7 3 28.8767 33.6018 52.4789 -0 0 -0
8 3 29.2249 32.5859 51.5578 0 0 -0
12 3 29.5097 31.7942 48.6411 0 0 -0
29 3 28.3504 31.4746 51.4694 -0 -0 0
30 3 27.1195 31.455 52.144 0 -0 -0
31 1 24.7949 33.9085 53.8481 0 0 -0
36 6 24.3385 30.8419 52.7807 -0 0 -0
37 6 24.3086 32.2391 51.6752 0 -0 -0
38 6 27.4272 34.3575 53.7756 -0 0 -0
39 6 29.5117 34.3861 52.6521 -0 0 -0
40 6 28.5674 32.1189 48.8685 0 -0 0
65 6 28.6048 30.6528 50.9154 0 0 0
66 6 26.5345 30.6251 52.0414 0 -0 -0
67 6 24.9272 34.6118 53.0171 0 -0 0
1 1 23.2935 33.6933 54.1015 0 -0 -0
34 6 22.5782 31.6427 54.0619 -0 0 -0
33 6 23.1023 33.5795 55.1724 -0 -0 -0
68 6 25.2678 34.3199 54.7433 -0 -0 -0
76 1 52.3068 28.9928 3.35301 0 0 0
77 1 51.0773 29.8485 2.93942 0 0 0
78 1 53.2565 28.686 2.16293 -0 0 0
99 6 51.9587 28.0495 3.78283 -0 -0 -0
100 6 52.8733 29.5287 4.11839 -0 -0 -0
101 6 50.5699 29.3476 2.10991 0 0 -0
103 6 52.7069 28.134 1.39479 -0 -0 0
104 6 53.5905 29.6312 1.72641 0 0 0
109 6 49.6984 29.0921 4.44006 0 0 0
74 1 57.8867 29.5008 3.10402 0 0 -0
79 1 56.8919 29.7564 1.94012 -0 0 -0
82 1 54.4919 27.8522 2.5953 -0 0 0
83 3 56.5559 28.5098 1.21253 -0 -0 -0
85 3 55.4645 27.6668 1.4927 0 0 0
94 6 55.9378 29.7286 5.26958 0 0 -0
95 6 57.488 28.7336 3.77072 -0 0 -0
96 6 58.8135 29.1026 2.67949 -0 0 0
111 6 54.9799 28.3248 3.44825 -0 -0 0
112 6 54.158 26.8659 2.92923 -0 0 -0
113 6 57.1764 28.2331 0.445944 -0 -0 0
116 6 55.3277 26.8586 0.878539 -0 0 -0
70 4 52.935 29.3273 9.58587 0 0 -0
107 6 54.0711 29.63 7.06151 -0 -0 0
60 6 40.2642 23.8882 38.3236 0 0 -0
62 7 42.4431 23.9725 37.0211 -0 -0 -0
49 6 34.6815 28.3287 41.713 -0 0 -0
21 1 36.9568 26.7976 41.1886 0 -0 -0
22 1 38.4873 26.5824 41.083 0 0 -0
23 1 38.8681 25.8362 39.7796 -0 -0 -0
24 1 40.3951 25.6082 39.6493 -0 0 -0
25 1 40.7571 24.863 38.3436 0 0 0
52 6 36.4559 25.8254 41.1679 -0 0 -0
53 6 36.6159 27.3776 40.3261 0 0 0
54 6 38.9897 27.5539 41.103 0 0 0
56 6 38.3599 24.8676 39.7635 0 0 0
57 6 38.5197 26.4191 38.922 0 0 -0
58 6 40.9051 26.5757 39.6629 0 0 -0
59 6 40.7452 25.0233 40.5047 0 -0 0
61 6 40.4243 25.4439 37.4801 0 -0 -0
55 6 38.8295 26.0018 41.9447 -0 -0 0
26 5 42.5406 24.6116 38.2186 0 0 0
15 5 31.0308 29.777 45.5256 0 0 0
16 1 32.7956 29.4674 45.3115 -0 0 -0
17 1 33.1027 28.7099 44.004 -0 0 0
18 1 34.6304 28.489 43.8722 0 0 -0
19 1 35.0214 27.7472 42.5748 0 -0 0
43 6 33.151 28.8732 46.157 -0 0 0
44 6 32.5886 27.7443 44.0106 0 -0 0
45 6 32.7388 29.2915 43.1521 -0 0 -0
46 6 35.1339 29.4605 43.8877 -0 0 0
47 6 34.9817 27.9092 44.7312 0 0 0
48 6 34.5223 26.7743 42.5534 0 -0 -0
20 1 36.5546 27.5414 42.4839 -0 -0 0
50 6 37.0516 28.516 42.5079 -0 -0 -0
51 6 36.893 26.964 43.3496 -0 -0 0
81 1 50.0319 30.0654 4.06965 -0 -0 0
84 1 50.5402 30.9224 5.26011 -0 -0 0
102 6 51.4187 30.822 2.57629 0 -0 0
110 6 49.1634 30.5654 3.63076 -0 -0 -0
114 6 51.3748 30.4125 5.74441 0 0 -0
115 6 50.8961 31.887 4.88825 0 -0 -0
120 6 48.601 31.703 5.88837 0 -0 0
71 1 57.0899 31.4803 4.68556 0 -0 0
72 1 58.2518 30.764 3.9363 0 -0 0
73 1 56.3589 30.6137 5.74815 -0 -0 0
89 6 56.3662 31.8556 3.95937 0 -0 -0
90 6 57.5144 32.352 5.19225 -0 0 0
91 6 58.721 31.4899 3.26587 0 -0 0
92 6 59.0076 30.4768 4.67299 0 -0 -0
98 6 54.4704 31.6837 5.70651 -0 -0 -0
105 6 57.3412 30.4588 1.23282 -0 0 -0
106 6 55.9805 30.221 2.31464 0 0 -0
69 8 51.626 31.0999 9.97453 -0 0 -0
86 1 53.3658 31.2888 8.27552 -0 -0 -0
87 1 49.4503 31.1748 6.32637 -0 0 0
88 3 52.643 30.5122 9.30416 -0 -0 -0
117 6 52.6318 31.633 7.54531 -0 -0 0
118 6 53.791 32.1677 8.76472 -0 0 0
119 6 49.1024 30.2289 6.74651 -0 0 -0
121 6 49.8579 31.7842 7.13551 -0 0 -0
122 7 51.1299 30.6074 10.6647 -0 0 -0
75 1 55.2066 31.378 6.45593 -0 0 -0
80 1 54.497 30.5186 7.53739 0 0 0
93 6 57.086 30.2838 6.49544 -0 -0 0
97 6 55.6108 32.2796 6.92448 -0 -0 0
108 6 55.2373 30.1904 8.27295 -0 -0 0
14 3 30.9654 30.6776 47.0276 0 0 -0
27 3 32.0676 30.989 47.8593 0 -0 0
42 6 33.3124 30.4297 45.292 -0 -0 -0
63 6 33.0171 30.7175 47.6126 0 0 -0
9 3 30.4102 32.6677 50.7818 0 -0 0
10 4 31.3634 33.3476 51.239 0 -0 -0
11 3 30.5958 32.0465 49.5191 0 0 -0
28 3 31.887 31.6779 49.0716 0 0 -0
64 6 32.7128 31.8809 49.6422 -0 0 -0
ITEM: TIMESTEP
1000
ITEM: NUMBER OF ATOMS
122
ITEM: BOX BOUNDS pp pp pp
0.0000000000000000e+00 6.0000000000000000e+01
0.0000000000000000e+00 6.0000000000000000e+01
0.0000000000000000e+00 6.0000000000000000e+01
ITEM: ATOMS id type xu yu zu vx vy vz
13 3 29.6581 30.8229 47.1901 -0.00131194 0.00547349 -0.00448132
9 3 29.8039 32.884 50.3852 -0.00187881 0.00126954 -0.00237588
2 1 23.4088 33.7966 54.7177 -0.000724312 -0.00168377 0.00142768
32 6 23.7075 32.5297 56.4851 0.0107089 0.00589903 0.00510779
35 6 23.9591 34.59 55.2332 -0.00637168 0.00187307 0.00202393
3 1 23.965 33.6131 53.2962 0.00372174 0.00191577 0.00261817
4 2 24.9904 32.5569 53.4376 0.000870044 -0.00111916 0.00110991
5 3 26.1904 32.6928 52.7138 0.000710561 -0.0016482 0.000570752
6 3 27.1185 33.7334 52.9163 0.00171589 -0.00306552 0.00221389
7 3 28.2923 33.7882 52.139 6.21356e-05 -0.00105987 -0.000140415
8 3 28.5899 32.8144 51.1392 -0.00206829 0.00111287 -0.00279158
12 3 29.2443 31.6052 48.2868 -0.00155304 0.00611056 -0.00500251
29 3 27.6509 31.7564 51.0047 -0.00336175 0.00260524 -0.00529414
30 3 26.4591 31.7143 51.7467 -0.00180945 0.00102896 -0.00288872
31 1 25.0531 32.0392 54.8216 -0.000337865 -0.00490218 -0.000424001
36 6 23.1832 33.2476 52.6252 0.00478286 0.00694233 -0.00134378
37 6 24.3528 34.5585 52.9047 0.00699324 0.00282145 0.00769036
38 6 26.9386 34.4475 53.6256 0.00355148 -0.00476568 0.00437906
39 6 28.9338 34.5652 52.317 0.000811553 -0.00188696 0.00065586
40 6 28.2443 31.7816 48.3811 -0.0013054 0.00913083 -0.00701137
65 6 27.8296 30.9617 50.3948 -0.00580919 0.00463465 -0.00836162
66 6 25.7961 30.9492 51.5975 -0.00244023 0.00208813 -0.00383728
67 6 25.8571 32.5153 55.3922 0.00420477 -0.0115972 -0.0011358
1 1 23.6848 32.4429 55.396 0.00369278 0.00109919 0.0054568
34 6 22.3438 34.0416 54.711 -0.00185589 -0.00664846 -0.00170427
33 6 22.9226 31.7124 55.1058 0.00140017 0.000475509 0.0138947
68 6 25.1881 30.9542 54.833 -0.00668228 -0.00558219 -0.00417751
41 6 28.9465 30.4082 46.582 -0.00100326 0.00815442 -0.00660177
76 1 52.3828 28.9441 3.49499 -0.000141446 0.000488295 0.00037521
77 1 51.123 29.8047 3.19967 -0.000551916 -8.72091e-05 0.000410081
78 1 53.2933 28.7919 2.24583 -0.000237642 0.000662637 0.000347779
99 6 52.0682 27.9519 3.83022 0.000365722 0.00043869 0.000731036
100 6 52.9588 29.4104 4.29757 -0.000232187 0.000889726 0.000269994
101 6 50.6108 29.3795 2.33163 -0.000273987 -0.000185928 0.000249141
103 6 52.7113 28.3547 1.42906 -0.000355098 0.000138328 0.00061126
104 6 53.6215 29.7863 1.93099 -0.000656634 0.000702573 4.65088e-05
109 6 49.8116 28.8564 4.65196 0.000264256 -0.0011345 0.000455218
74 1 57.8768 29.3957 3.07395 0.000431771 -0.000211978 -7.67788e-05
79 1 56.9173 29.8461 1.93928 7.9553e-05 0.000186067 0.000365183
82 1 54.5325 27.8969 2.50503 -0.000171718 0.000909265 0.000363516
83 3 56.5078 28.7143 1.07558 -0.000422337 0.000708469 1.58686e-05
85 3 55.4348 27.8405 1.32966 -0.000462409 0.000914906 0.000198899
94 6 55.8038 29.815 5.11899 0.0014776 -0.00108311 0.00108112
95 6 57.4007 28.6273 3.68593 0.000614261 -0.000482491 -0.000306558
96 6 58.7581 28.9356 2.61674 0.000418237 -3.23868e-05 -0.000512564
111 6 55.0689 28.2578 3.38086 -0.000101581 0.00094454 0.0002951
112 6 54.1995 26.8811 2.73368 -7.57639e-05 0.000836764 0.000318378
113 6 57.0627 28.5425 0.232156 -0.000478295 0.000615839 0.000141241
116 6 55.2488 27.1144 0.631864 -0.000673257 0.00114837 0.00014479
70 4 52.389 29.4483 9.00711 0.000334932 0.000294506 -7.87531e-05
107 6 53.8726 29.8933 6.77189 0.00109669 -0.000831444 -0.000356147
81 1 50.0916 29.8724 4.35967 -0.000566653 -0.000912518 0.000394416
108 6 55.0338 29.979 8.10437 0.000127133 -4.60712e-05 0.000664333
119 6 49.1496 29.825 7.03328 -0.00168543 -0.00143745 -0.00058752
93 6 57.0096 29.9685 6.40542 0.00147563 0.0002521 0.00084394
60 6 40.0986 23.8982 37.9121 -0.00205006 0.00215831 -0.00147124
62 7 42.1648 23.8366 36.4362 -0.00234304 0.000459847 -0.00151831
49 6 35.3246 28.3218 42.0448 0.00031893 -0.0041156 0.00180481
21 1 37.4798 26.8192 41.351 0.00256199 -0.000186999 0.00226221
22 1 38.9608 26.424 41.1285 0.00262622 0.000531242 0.000908517
23 1 39.1538 25.8186 39.7135 0.00143255 0.00099952 0.000512039
24 1 40.6077 25.3691 39.4351 0.000773234 -0.000363568 -0.000399506
25 1 40.7443 24.7738 38.0145 -0.000400925 0.000882303 -0.00100713
52 6 36.8625 25.923 41.2344 0.00300301 -0.000775345 0.00345075
53 6 37.1865 27.5327 40.5746 0.00113025 -0.000616057 0.00225129
54 6 39.5941 27.3087 41.2369 0.00219382 0.000753271 0.00108
56 6 38.4928 24.9535 39.6028 0.000422016 0.00173595 0.000388653
57 6 38.8653 26.564 38.9661 0.00162474 0.00208159 0.00146071
58 6 41.2765 26.229 39.5329 0.00137411 -0.000943335 0.000555693
59 6 40.9026 24.616 40.1715 6.3446e-07 -0.00115653 -0.000882767
61 6 40.4534 25.5162 37.2674 0.000425425 0.00208446 -0.000134719
55 6 39.2569 25.6905 41.8835 0.00322867 0.000706449 0.000751648
26 5 42.4478 24.2744 37.6935 -0.00137198 -0.00147657 -0.00115159
51 6 37.5161 26.7732 43.5283 0.00413326 0.00195043 0.00261308
16 1 33.2362 29.4978 45.4771 -0.000386502 0.000258739 0.000295875
17 1 33.7059 28.6057 44.299 0.000374798 -0.00121913 0.0016251
18 1 35.2527 28.4476 44.1996 0.000709362 0.00037222 0.00131216
19 1 35.6624 27.7174 42.8922 0.00197379 -0.00187271 0.00282648
43 6 33.573 29.0585 46.4181 0.000417585 0.00211858 0.000979796
44 6 33.2571 27.6141 44.4045 0.00141154 -0.00149014 0.00326572
45 6 33.3323 29.0458 43.3699 -0.000584651 -0.00337271 0.00108041
46 6 35.7225 29.4349 44.214 -0.000761041 0.00112832 -0.000808942
47 6 35.6156 27.882 45.0623 0.00164043 0.00296292 0.00266694
48 6 35.1377 26.758 42.8491 0.00357327 -0.00291728 0.00538161
20 1 37.1848 27.4513 42.7372 0.00253547 0.000425776 0.00209609
50 6 37.7356 28.3909 42.8323 0.000989748 0.00132829 0.0012368
15 5 31.4255 29.6496 45.5062 -0.000656134 -0.00166525 0.00144322
97 6 55.9606 32.1048 7.14586 0.000573303 -0.000100224 0.000211278
84 1 50.5789 30.6518 5.60926 -0.0012264 -0.000458792 0.000343549
102 6 51.4311 30.8195 2.93304 -0.000938851 0.000121258 0.000667577
110 6 49.1928 30.3638 3.97589 -0.00104003 -0.0016334 0.000370495
114 6 51.4214 30.1245 6.05993 -0.00085307 0.000335634 0.000523096
115 6 50.9171 31.6473 5.30986 -0.0020503 -0.000201894 0.000136
120 6 48.6144 31.3376 6.26683 -0.0014621 -0.000885446 7.14679e-05
71 1 57.2855 31.3591 4.75979 0.000933886 -0.000552771 0.000283677
72 1 58.3704 30.5411 4.00195 0.000821791 -0.000630246 0.000207463
73 1 56.3798 30.5292 5.70911 0.00112459 -0.000420565 0.000609914
89 6 56.6633 31.8943 4.03851 0.000997557 -0.00046624 0.00031984
90 6 57.8043 32.1149 5.3564 0.00114894 -0.00047607 0.000174977
91 6 58.9587 31.2382 3.39885 0.00111681 -0.000644733 0.000439194
92 6 59.0497 30.1079 4.74171 0.000745132 -0.00100456 4.03835e-05
98 6 54.7923 32.0059 5.81689 0.000981634 -0.000699152 -0.000178751
105 6 57.4243 30.5908 1.32003 0.000161695 0.000230742 0.000411638
106 6 56.031 30.3246 2.35706 0.000442463 0.000315285 0.000683234
69 8 51.6017 31.3777 9.82093 0.000156716 0.000867198 -0.00133318
86 1 53.4441 31.4532 8.22329 -0.000140202 -6.70265e-05 -0.00145877
87 1 49.4741 30.8055 6.67892 -0.00157782 -0.00117746 9.35525e-05
88 3 52.462 30.6984 9.02893 8.30382e-05 0.000332404 -0.00097136
117 6 52.8842 32.0947 7.54011 -0.000434926 -0.000899564 -0.00212077
118 6 54.0111 32.0933 8.90257 -0.000690179 0.000748751 -0.00177232
80 1 54.4383 30.5781 7.40919 0.000575961 -0.000404973 -0.000184492
121 6 49.8564 31.3739 7.52809 -0.00186598 -0.0016509 0.000626005
122 7 50.9389 30.9001 10.3653 0.000347209 0.00118451 -0.000685852
75 1 55.3915 31.4151 6.51573 0.000918648 -0.000408096 0.000228497
14 3 31.0262 30.6291 46.9082 -0.00106 0.00146709 -0.00104496
27 3 31.9671 31.2574 47.7492 -0.00104113 -0.00102718 0.000658336
42 6 33.6698 30.494 45.3652 -0.00181343 0.000800414 -0.00149595
63 6 32.9672 31.1729 47.5725 -0.00108818 -0.00409434 0.00304613
64 6 32.2791 32.4239 49.4468 -0.00139094 -0.00319151 0.00176067
10 4 30.6855 33.655 50.8455 -0.00102649 -0.000999105 -0.000382198
11 3 30.1734 32.1696 49.2015 -0.00171876 0.00245925 -0.00293017
28 3 31.5474 32.0097 48.863 -0.00138706 -0.000725891 0.00016144
ITEM: TIMESTEP
2000
ITEM: NUMBER OF ATOMS
122
ITEM: BOX BOUNDS pp pp pp
0.0000000000000000e+00 6.0000000000000000e+01
0.0000000000000000e+00 6.0000000000000000e+01
0.0000000000000000e+00 6.0000000000000000e+01
ITEM: ATOMS id type xu yu zu vx vy vz
13 3 29.6465 30.994 47.2799 0.000577318 0.00216759 -0.00473977
12 3 29.3003 31.8118 48.367 0.000851834 -0.00108844 -0.00242316
40 6 28.3086 31.8978 48.5951 0.000818369 -0.00289421 -0.00138866
41 6 28.905 30.4701 46.8057 -2.31008e-05 0.00417573 -0.00591721
36 6 23.9748 33.0778 52.255 0.0072735 -0.0163709 -0.00455115
68 6 24.5859 30.5218 53.6714 0.000444236 0.00556431 0.000153246
3 1 24.3844 33.3516 53.2328 0.000789079 -0.00475538 -0.00507098
4 2 25.4866 32.4449 53.6099 0.00445377 0.00579337 0.0100242
5 3 26.705 32.4897 52.9203 0.00261651 -0.000248581 0.00517152
6 3 27.5379 33.6018 53.1352 0.00253007 0.000865652 -0.000891059
7 3 28.6282 33.8173 52.2822 0.0031594 -0.00345959 -0.000786017
8 3 28.9534 32.8956 51.2487 0.00060766 -0.00448432 -0.000534634
29 3 28.2272 31.6767 51.2202 -0.000917518 -0.00369447 0.00226901
30 3 27.0787 31.4966 52.0015 0.00296727 -0.00449356 0.00925452
37 6 24.7072 34.3972 53.2177 -0.00661849 -0.00259655 -0.013974
38 6 27.3204 34.2793 53.8709 0.00306914 0.00478657 -0.00407379
39 6 29.1647 34.6784 52.4166 0.00530505 -0.00462444 -0.00124057
65 6 28.5116 30.8942 50.6324 -0.00444908 -0.00370368 -0.000198848
66 6 26.5143 30.6521 51.8913 0.00492797 -0.00680642 0.0149303
2 1 23.3639 33.1012 54.3627 -0.0021447 -0.00157966 -0.00683308
35 6 23.2405 33.9928 54.9837 -0.00499885 0.0012098 -0.0115974
1 1 23.9237 31.9279 55.2077 -0.00277457 0.00339889 7.08865e-05
34 6 22.3923 32.836 53.9376 -0.000582103 -0.00496436 -0.00821323
33 6 23.1427 31.2108 55.4722 -0.00177244 0.00289391 0.00255842
32 6 24.3735 32.3116 56.1285 -0.00422552 0.00880919 -0.00159582
31 1 25.011 31.27 54.3478 -0.000358141 0.00321651 0.0038269
67 6 25.7955 30.8227 54.964 -0.00409627 -5.67792e-05 0.00593995
76 1 52.1229 29.0116 3.3799 0.000702746 7.70948e-05 -0.000335607
77 1 50.8016 29.7983 3.15355 0.000443541 -0.000321283 0.00010166
78 1 53.0766 29.0494 2.15398 -0.000570903 -0.00021877 -0.00110888
99 6 51.8846 27.9677 3.60059 0.000938365 -2.97739e-05 4.02441e-05
100 6 52.6403 29.4319 4.24603 0.00125196 0.000518007 -0.000874454
101 6 50.3851 29.5094 2.18449 0.000153374 0.00033793 -1.87018e-05
103 6 52.5745 28.5909 1.29689 -0.000852947 -0.00124755 -0.000308906
114 6 50.9556 29.6678 6.0131 0.00156831 -0.000671266 -0.000148431
109 6 49.5431 28.4531 4.3059 0.00143805 -0.00112092 7.27119e-05
81 1 49.7103 29.531 4.22838 0.000863946 -0.000904397 0.000372521
74 1 57.9612 29.201 3.12082 -0.000739137 -0.000983216 0.000962681
79 1 57.0873 29.9398 2.07139 -0.000518702 -2.0169e-05 0.00142767
82 1 54.4091 28.3032 2.42819 -0.000463104 0.000215941 -0.00137014
83 3 56.4993 29.004 1.08606 -0.000339178 0.00156959 1.44601e-05
85 3 55.2956 28.2919 1.24012 -0.000501345 0.00177162 -0.00123767
94 6 56.0477 29.7214 5.20598 -0.000825267 0.000305396 -0.000828638
95 6 57.3551 28.4648 3.65272 -0.00085156 -0.00139255 0.000550712
96 6 58.7411 28.6459 2.59024 -0.00101604 -0.000617977 0.000566824
111 6 54.899 28.7618 3.28534 -0.000806944 -0.000720065 -0.000606654
112 6 54.1986 27.2651 2.69822 -0.000329057 -0.000259659 -0.00284053
113 6 57.0221 28.8504 0.218821 0.000139557 0.00236333 2.1796e-05
116 6 55.0016 27.7056 0.453705 -0.000327286 0.00256915 -0.00210323
70 4 52.5221 29.8425 9.18734 -0.00113745 0.000951053 -0.00200156
107 6 54.0518 29.985 6.74479 -0.000545056 0.00076168 0.000298259
119 6 48.7558 28.733 6.76081 0.00110432 -0.00233349 -0.000784238
93 6 57.1786 29.6729 6.56463 -0.0018649 -0.000594664 0.000173594
92 6 59.2371 29.4988 4.84135 -0.00138214 -0.00298186 0.00188804
87 1 48.905 29.8095 6.65727 0.00167707 -0.00213363 0.000585053
108 6 55.0902 29.9785 8.18195 -2.52097e-05 0.00117145 -0.000288095
62 7 43.2706 24.0916 37.8491 0.00218018 -0.00145705 0.00589355
60 6 40.8066 23.6591 38.3941 -0.000511556 0.00164479 0.000734629
21 1 36.7026 26.1203 41.184 -0.000638785 0.000404189 0.00278381
22 1 38.2234 26.0495 40.8743 -0.000831856 0.00251642 0.000753996
23 1 38.7623 25.1644 39.7091 -0.000945948 8.58605e-05 0.0020781
24 1 40.317 25.3276 39.7009 -0.00113 0.00310281 -0.001372
25 1 41.1208 24.6935 38.5448 0.00083862 0.00126102 0.000714866
52 6 36.3961 25.2122 41.7112 0.00199296 0.00128491 0.00547673
53 6 36.1388 26.1829 40.2504 -0.00186435 -0.00423026 0.00350059
54 6 38.5547 27.0689 40.6535 -0.00351665 0.00279615 -0.00258081
56 6 38.4934 24.1168 39.8679 0.00147674 3.74923e-05 0.00559559
57 6 38.3439 25.4974 38.7559 -0.0033301 -0.00329806 0.00200135
58 6 40.5717 26.3924 39.7009 -0.00388284 0.00375535 -0.00478959
59 6 40.6881 24.9014 40.6386 0.000586682 0.00715042 -0.000210755
61 6 40.9628 25.2541 37.62 0.00416316 0.000819523 -0.000182597
55 6 38.7185 25.7413 41.8006 0.00114476 0.00582526 0.000979666
26 5 42.8832 24.7214 38.9916 -8.97936e-05 -0.00121106 0.00503715
49 6 34.3141 27.6659 41.6282 -0.00330043 -0.00353435 0.0016102
16 1 32.9546 29.9485 44.9606 -0.00225714 0.00305053 -0.00470649
17 1 33.2161 28.8751 43.8693 -0.00233293 -0.000873948 -0.000412203
18 1 34.7138 28.7148 43.4975 -0.0025321 0.00196447 -0.00139394
19 1 34.9394 27.5286 42.5146 -0.00202442 6.78992e-05 0.00117282
43 6 33.5937 29.7533 45.8242 -0.00107009 0.00680784 -0.0050666
44 6 32.8523 27.9091 44.2335 0.000930392 -0.000488345 0.00392264
45 6 32.648 29.133 42.9706 -0.0046944 -0.00684774 -0.000825857
46 6 35.0691 29.6436 43.043 -0.00531553 0.00158593 -0.00438678
47 6 35.296 28.5336 44.4055 -0.000754083 0.00499184 -0.00193674
48 6 34.6309 26.6009 43.0041 0.000497734 0.000640541 0.00378313
15 5 31.2226 29.8368 45.4697 -0.00103252 0.00188849 -0.00289717
51 6 37.0472 27.3453 42.9505 -0.00100104 0.00573609 -0.00115107
20 1 36.4121 27.3819 42.0603 -0.00247051 0.00222468 -0.000589978
50 6 36.6809 28.2788 41.4936 -0.00471118 0.000794131 -0.00431139
84 1 50.028 30.104 5.63586 0.00112335 -0.000951988 0.000329295
102 6 51.0175 30.8695 3.11176 0.000132085 -0.000188634 0.000577315
110 6 48.7767 29.982 3.87936 0.000638137 -0.00122391 0.00083844
115 6 50.1647 31.1865 5.56534 0.000260689 -0.000882374 0.000904432
71 1 57.7456 31.0628 4.9915 0.000575294 -0.00117733 0.000963708
72 1 58.6635 30.1274 4.15435 -0.000191091 -0.00210728 0.00152292
73 1 56.6777 30.3333 5.85164 -0.000920816 -1.9042e-05 -0.00025067
89 6 57.254 31.7728 4.32263 0.00221883 -4.17211e-05 0.000682986
90 6 58.3851 31.6457 5.6606 0.000972959 -0.00265705 0.00163384
91 6 59.3823 30.7536 3.61811 0.000906973 -0.00298091 0.00194686
75 1 55.7629 31.3246 6.61747 -0.00098354 0.000653152 -0.00131388
98 6 55.3068 32.0114 5.89845 -0.00160738 -0.00056017 -0.00203558
105 6 57.712 30.6587 1.5345 -0.000314008 0.000427608 0.00255854
106 6 56.2901 30.5065 2.55388 -0.00075854 -0.00022029 0.00196506
80 1 54.6363 30.6174 7.41942 -0.000300995 0.000894303 -0.000237587
120 6 47.9673 30.2697 6.33982 0.00148177 -0.00114758 0.00222122
69 8 51.7552 31.9129 9.55984 0.00116664 0.0010025 0.00178699
86 1 53.6838 31.6393 8.10159 -0.000165142 0.00100286 -0.000357659
104 6 53.2974 30.0913 1.90415 -0.00118853 -0.000239827 -0.00218945
88 3 52.6324 31.0706 8.96866 2.33629e-05 0.0011288 -6.61377e-05
117 6 53.1846 32.2234 7.32489 -0.000365205 0.000512902 -0.000465521
121 6 49.1794 30.2165 7.63241 0.00237998 -0.00389539 0.00118501
122 7 51.0451 31.5667 10.1437 0.00138628 0.000856684 0.00154986
97 6 56.3763 31.9127 7.30568 -0.00107277 0.00193579 -0.00204081
118 6 54.2728 32.3255 8.71385 3.48497e-06 0.00134157 -0.000672888
14 3 30.9766 30.9085 46.8311 0.00083341 0.00227288 -0.00314944
27 3 31.9551 31.6881 47.4848 0.000874243 0.00116475 -0.00248068
42 6 33.1611 30.9479 44.572 -0.0045851 0.00184749 -0.00853232
63 6 32.9252 31.6742 47.1697 0.00157047 -2.1061e-06 -0.0010223
64 6 32.3457 33.0304 49.043 -0.00031542 0.00409654 -0.0043462
10 4 30.7694 34.1187 50.6639 0.00260706 -0.00670092 5.43532e-05
11 3 30.2825 32.5076 49.113 0.000530151 -0.00157326 -0.00251047
28 3 31.6026 32.4915 48.591 0.000322358 0.00229703 -0.00390053
9 3 29.9962 33.1869 50.3309 0.000650719 -0.00473439 -0.000845116
ITEM: TIMESTEP
3000
ITEM: NUMBER OF ATOMS
122
ITEM: BOX BOUNDS pp pp pp
0.0000000000000000e+00 6.0000000000000000e+01
0.0000000000000000e+00 6.0000000000000000e+01
0.0000000000000000e+00 6.0000000000000000e+01
ITEM: ATOMS id type xu yu zu vx vy vz
13 3 29.2596 30.8666 46.8056 -0.00865789 0.00419377 -0.00319475
41 6 28.3424 30.554 46.4772 -0.00881734 0.00868547 -0.0062223
34 6 23.5097 30.7799 54.168 0.00435861 0.00293966 -0.00124207
12 3 29.3187 31.6413 47.9775 -0.00531949 0.00438255 -0.00346159
40 6 28.4221 31.9104 48.3858 -0.00468347 0.00856554 -0.00456491
36 6 25.0257 31.1509 52.4787 0.00494349 -0.00063237 0.000942597
68 6 27.1164 30.8219 54.6964 -0.0101407 -0.0210561 -0.0121795
3 1 24.9591 32.0356 53.1157 0.00705472 -0.000253678 0.000782199
4 2 26.2848 32.4827 53.623 0.00836257 -0.0054565 -0.000120148
5 3 27.3758 32.4584 52.7042 0.00777913 -0.00710221 0.00275941
6 3 28.2335 33.5767 52.6834 0.00770184 -0.00684664 0.00354216
7 3 29.344 33.6055 51.8148 -0.000545956 -0.000383549 -0.00462028
8 3 29.5337 32.5965 50.8347 -0.005468 0.00180432 -0.0062379
29 3 28.6912 31.4565 50.9146 -0.00298323 -2.41786e-05 -0.00355845
30 3 27.6513 31.3668 51.8489 0.00357837 -0.0071968 0.00290226
37 6 24.4754 32.8337 52.5467 0.0114106 0.00162608 0.000131262
38 6 28.0615 34.3634 53.3161 0.0118927 -0.00954351 0.00787511
39 6 29.9784 34.4072 51.8663 -0.00293517 0.00160157 -0.00745953
65 6 28.8602 30.6336 50.3315 -0.00287627 0.00141683 -0.0057767
66 6 27.1112 30.5009 51.9058 0.00666558 -0.00923808 0.00588857
2 1 24.1361 31.6557 54.3619 0.00360518 0.00369468 -0.00139251
35 6 23.4886 32.4885 54.6521 0.0032379 0.00487697 -0.00550751
1 1 25.1681 31.3662 55.4701 0.00280568 0.00809218 0.000880618
33 6 25.1395 30.3128 55.7674 -0.00654615 0.0131085 0.0177102
32 6 24.9549 31.9828 56.3498 0.00970747 0.0234656 -0.00855726
31 1 26.5448 31.7399 54.8731 0.00543651 -0.0125039 -0.00610897
67 6 27.1098 32.3756 55.5623 0.0193689 -0.0230231 -0.00801398
76 1 52.0181 28.9402 3.16861 9.29068e-05 0.000833087 0.000786753
77 1 50.9046 30.0199 3.20856 0.000342591 0.00125844 7.32303e-05
78 1 53.048 29.1579 2.03021 -0.000452199 -0.00138533 -0.000214952
99 6 51.5645 27.9523 3.04691 -0.00021924 0.000924179 0.00302008
100 6 52.5478 28.9557 4.12377 0.000661304 0.00222971 0.000486655
79 1 57.017 29.8657 2.23155 -0.000294553 -5.74718e-05 0.000193164
103 6 52.5741 28.9319 1.06999 -0.00091578 -0.00473604 0.000696051
109 6 49.3326 28.7354 3.9707 -0.000315903 0.0017452 -0.000726085
81 1 49.768 29.7067 4.22128 9.50229e-05 0.00127024 -0.000226749
121 6 49.4235 29.2938 7.69279 -0.0019283 -0.0026179 -0.000619764
74 1 57.8584 29.0503 3.25078 -0.000172884 0.000458301 0.000337047
72 1 58.6274 29.9188 4.28979 0.000395013 0.000392575 0.000148877
82 1 54.2963 28.2612 2.23222 0.000406506 0.000197204 0.00219134
83 3 56.4898 29.0345 1.12519 -0.000207645 -0.000612241 0.000619536
85 3 55.2522 28.3662 1.10676 0.000106881 -0.00111105 0.0017504
94 6 56.022 29.7512 5.29002 -0.000617651 0.00120257 -0.00221647
95 6 57.2099 28.3471 3.77757 0.000192134 0.000540178 0.000536398
96 6 58.597 28.4544 2.70613 -0.00030947 0.000146148 -1.45052e-05
111 6 54.775 28.5259 3.17555 0.000217221 0.00220945 0.00183978
112 6 53.9863 27.2159 2.31385 0.00134124 0.00013943 0.00435024
113 6 57.0786 28.9443 0.291414 -0.00104386 0.000329304 -0.000143861
116 6 54.9929 27.8916 0.236319 -0.000116508 -0.00219684 0.00233626
92 6 59.0985 29.2493 5.01497 -0.000181746 0.000131884 0.000267908
114 6 51.0069 28.9693 5.86026 -0.0026791 -0.00274582 -0.000492379
84 1 50.2104 29.7003 5.70971 -0.000485554 -0.000563259 -6.69674e-05
119 6 48.6485 28.3482 6.41023 -0.00591745 0.0040508 -0.00303315
87 1 49.0556 29.3286 6.66558 -0.00187273 0.00169066 -0.000599475
93 6 57.0715 29.7899 6.71078 -0.00181107 3.5857e-05 -0.00145294
120 6 48.2574 30.0706 6.60623 0.00118404 0.00517603 0.00157445
70 4 52.6502 29.9698 9.21424 0.00333612 -0.000880502 -0.000151697
60 6 39.6205 24.3177 40.0336 0.00453202 0.0052709 -0.00445416
42 6 32.0449 28.4721 45.0007 0.00507617 0.00426917 0.00945499
21 1 36.6769 27.9586 41.8109 0.00272019 0.00703289 -0.00356672
22 1 38.1818 27.6173 42.01 0.00193545 0.00185412 -0.00201404
23 1 38.566 26.2246 41.4388 -0.00150984 0.000804766 -0.00298036
24 1 40.0989 25.8629 41.4818 -0.00201119 -9.57941e-05 0.00252404
25 1 40.5254 24.8326 40.3607 0.00404517 0.000429785 0.00407464
52 6 36.1234 27.3857 42.5552 0.000284132 0.00470778 -0.00700995
53 6 36.3398 27.6372 40.8224 0.00544489 0.0100781 -0.00568208
54 6 38.7902 28.3694 41.5001 0.00446617 0.00154339 0.000539025
56 6 38.0012 25.4523 41.9692 -0.00496858 0.00192245 -0.00492367
57 6 38.2383 26.2139 40.3956 0.00198599 0.00301325 -0.00408338
58 6 40.695 26.7718 41.3571 -0.00105565 -0.00058201 0.00298231
59 6 40.3326 25.4513 42.4658 -0.00487121 0.000791782 0.00358077
61 6 40.8821 25.4053 39.5012 0.0123864 0.00135527 0.00823041
55 6 38.4258 27.6573 43.0759 0.000224305 -0.00146578 -0.00156025
50 6 36.9373 30.0084 41.1405 -0.00124127 0.00782147 0.000709522
62 7 41.3628 22.8 39.4968 -0.00527158 -0.00705752 0.00760748
26 5 41.7299 23.4709 40.6241 -0.0030747 -0.00584664 0.00634583
20 1 36.4065 29.4835 41.9411 0.000395381 0.00628052 0.000545654
17 1 32.7836 29.7862 43.3881 -0.001796 0.00106255 0.00266776
18 1 33.9759 29.0118 42.7763 -0.000592499 0.00343154 0.00197154
19 1 34.9103 29.8935 41.8833 -0.00042892 0.00641017 0.00449865
43 6 31.3796 28.1473 43.4033 0.00597553 -0.00558656 0.0107297
51 6 36.8204 29.8323 42.8915 0.00156135 0.00437754 0.000421551
16 1 31.6721 28.9437 44.0894 0.00376693 -0.0010609 0.0071232
46 6 34.5325 28.6047 43.6235 0.000562947 0.00390628 0.00135908
47 6 33.6073 28.1711 42.1815 0.00154905 0.00344612 0.000615388
48 6 34.5605 29.8431 40.8483 -0.000973776 0.010116 0.00460786
15 5 30.1548 29.888 44.4406 0.00232043 -0.00223561 0.000887789
107 6 54.0364 30.1322 6.79866 -0.000338738 0.00145277 -0.000998725
102 6 51.3456 30.99 3.45328 0.000931986 0.000744176 0.000683779
115 6 50.5958 30.6871 5.98103 0.00225207 -0.0017917 0.000719636
104 6 53.3653 30.2046 2.01899 -0.00154729 -0.00111699 -0.00331395
71 1 57.7995 30.985 5.06452 0.000595967 0.000461831 0.000298816
97 6 56.3072 32.1667 7.13916 -0.000316835 0.000568518 -0.00230018
73 1 56.6397 30.4003 5.91253 -0.000705218 0.000415916 -0.0013767
89 6 57.4054 31.717 4.35668 0.00161754 0.00104768 0.000591514
90 6 58.477 31.5217 5.73446 0.000660332 -0.000363959 0.00138658
91 6 59.4329 30.4404 3.76461 0.000789018 0.000309491 0.000427862
98 6 55.2379 32.0565 5.72754 -0.000755882 0.000729343 -0.00158098
105 6 57.6462 30.6471 1.7967 0.000144072 -0.000714389 -0.000863131
106 6 56.1909 30.3689 2.73742 0.000262125 0.000680942 -0.000405323
110 6 48.9838 30.4586 4.09608 0.00066411 0.00209475 -4.01684e-05
69 8 51.6995 31.9653 9.56387 -0.00117749 -0.00315772 -0.0008187
86 1 53.6403 31.8339 8.08233 2.17963e-05 0.000598961 0.000161633
88 3 52.6475 31.2001 8.97595 0.000506219 -0.00100198 -0.000460875
117 6 53.0955 32.371 7.30349 -0.000226084 0.00080588 0.000385031
80 1 54.6174 30.828 7.41229 1.26203e-05 0.00104812 -0.000628817
122 7 51.0322 31.563 10.1615 -0.00100801 -0.00471075 -0.000972204
118 6 54.2071 32.5606 8.66801 -0.000313557 0.000385986 0.000211358
75 1 55.7118 31.4822 6.52885 -0.000585925 0.000711606 -0.00159089
108 6 55.1139 30.2512 8.19877 0.00029136 0.000328434 -0.00125648
101 6 50.4568 30.0995 2.21392 0.00113829 0.00208041 -0.000122489
14 3 30.4036 30.6039 46.0374 -0.00720015 0.001311 -0.000974367
27 3 31.6248 31.0891 46.5635 -0.00764851 0.00493062 -0.00557331
44 6 32.3122 30.3569 42.5846 -0.00498539 -0.00255591 0.00177281
63 6 32.4931 30.9343 46.0678 -0.00971496 0.00904311 -0.00928986
64 6 32.611 32.1434 48.1028 -0.00507063 0.000859454 -0.0051799
10 4 31.5289 33.4299 50.114 -0.00311837 -0.000743895 0.00135398
11 3 30.5359 32.0683 48.5582 -0.0042051 -0.000249261 -0.00247324
28 3 31.696 31.8179 47.7784 -0.00550825 0.00153359 -0.0046736
9 3 30.5424 32.7116 49.8319 -0.00391562 0.001753 -0.00361657
45 6 33.2078 30.5077 44.0809 -0.00109338 0.00397282 -0.00148116
49 6 34.8505 30.9414 42.1922 7.90889e-05 0.00531237 0.00834705
ITEM: TIMESTEP
4000
ITEM: NUMBER OF ATOMS
122
ITEM: BOX BOUNDS pp pp pp
0.0000000000000000e+00 6.0000000000000000e+01
0.0000000000000000e+00 6.0000000000000000e+01
0.0000000000000000e+00 6.0000000000000000e+01
ITEM: ATOMS id type xu yu zu vx vy vz
68 6 29.2317 29.8166 55.252 -0.00209833 -0.00627155 0.00432461
66 6 28.0427 29.3253 51.2635 0.0120913 -0.00139766 -0.00589841
36 6 26.5477 29.311 55.016 0.0274951 -0.00631544 0.00585658
13 3 28.8929 31.1241 45.6368 -0.00590391 0.00730407 0.00161542
9 3 29.0202 33.1356 48.9431 -0.00559151 0.00330762 0.000657038
12 3 28.6049 31.5401 46.9696 -0.0031544 0.00391866 0.00262048
40 6 27.7954 31.1058 47.4121 -0.000256439 0.000270858 0.00510637
33 6 28.4866 31.4234 56.7171 0.00353113 0.0179579 -0.00980569
3 1 26.6461 30.2447 54.4518 0.00943684 -0.00850514 -0.00130616
4 2 27.9291 30.2191 53.7086 0.0069292 0.00538281 -0.0062231
5 3 28.0064 31.0035 52.5272 -0.000574768 1.57555e-05 -0.00510289
6 3 28.0733 32.4167 52.5164 -0.00405442 -0.00205652 -0.000567731
7 3 28.2361 33.1312 51.323 -0.000682075 -0.00603091 -0.000532808