LAMMPS (8 Feb 2023)
OMP_NUM_THREADS environment is not set. Defaulting to 1 thread. (src/comm.cpp:98)
  using 1 OpenMP thread(s) per MPI task

# define variables

variable       spacing index 10.0
variable       lbox index 20.0
variable       sname string combined_mc

units           real
atom_style      full
boundary        p p p
pair_style      lj/cut/coul/long  14
pair_modify     mix arithmetic tail yes
kspace_style    ewald 0.0001
bond_style      harmonic
angle_style     harmonic
dihedral_style  harmonic
improper_style  umbrella
kspace_style    pppm 0.001

# initialize a simple cumbic box for the initial structure

lattice        sc ${spacing}
lattice        sc 10.0
Lattice spacing in x,y,z = 10 10 10
region         mybox block 0 ${lbox} 0 ${lbox} 0 ${lbox} units box
region         mybox block 0 20.0 0 ${lbox} 0 ${lbox} units box
region         mybox block 0 20.0 0 20.0 0 ${lbox} units box
region         mybox block 0 20.0 0 20.0 0 20.0 units box
create_box     8 mybox                bond/types 13                angle/types 5                dihedral/types 11                improper/types 1                extra/bond/per/atom 13                extra/angle/per/atom 10                extra/dihedral/per/atom 20                extra/improper/per/atom 20                extra/special/per/atom 100
Created orthogonal box = (0 0 0) to (20 20 20)
  1 by 1 by 1 MPI processor grid

molecule       xlig xlig.lammps.txt
Read molecule template xlig:
  1 molecules
  0 fragments
  68 atoms with max type 7
  70 bonds with max type 10
  128 angles with max type 4
  188 dihedrals with max type 11
  39 impropers with max type 1
molecule       oleic oleic.lammps.txt
Read molecule template oleic:
  1 molecules
  0 fragments
  54 atoms with max type 6
  53 bonds with max type 13
  100 angles with max type 5
  141 dihedrals with max type 9
  9 impropers with max type 1

create_atoms   0 single 0  0  0   mol xlig 42 units box
Created 68 atoms
  using box units in orthogonal box = (0 0 0) to (20 20 20)
  create_atoms CPU = 0.001 seconds
create_atoms   0 single 10 10 10  mol oleic 42 units box
Created 54 atoms
  using box units in orthogonal box = (0 0 0) to (20 20 20)
  create_atoms CPU = 0.000 seconds

# coeffs
# Masses

mass    1 1.2011E+01 # C_3
mass    2 1.4007E+01 # N_3
mass    3 1.2011E+01 # C_R
mass    4 1.5999E+01 # O_2
mass    5 3.2060E+01 # S_3
mass    6 1.0080E+00 # H_
mass    7 1.0080E+00 # H___A
mass    8 1.5999E+01 # O_R


pair_coeff           1 1 0.09510000 3.47299041 # C_3 C_3
pair_coeff           2 2 0.07740000 3.26256026 # N_3 N_3
pair_coeff           3 3 0.09510000 3.47299041 # C_R C_R
pair_coeff           4 4 0.09570000 3.03315369 # O_2 O_2
pair_coeff           5 5 0.34400001 3.59032202 # S_3 S_3
pair_coeff           6 6 0.01520000 2.84642134 # H_ H_
pair_coeff           7 7 0.01520000 2.84642134 # H___A H___A
pair_coeff           8 8 0.09570000 3.03315369 # O_R O_R


pair_modify          mix geometric
neighbor             2.0 multi
neigh_modify         every 2 delay 4 check yes
thermo_style         multi
thermo_modify        line multi format float %14.6f flush yes

bond_coeff           1 350 1.53000 # C_3 C_3
bond_coeff           2 350 1.09000 # C_3 H_
bond_coeff           3 350 1.46200 # N_3 C_3
bond_coeff           4 350 1.39200 # N_3 C_R
bond_coeff           5 525 1.39000 # C_R C_R
bond_coeff           6 350 1.02000 # C_R H_
bond_coeff           7 700 1.25000 # O_2 C_R
bond_coeff           8 350 1.73000 # S_3 C_R
bond_coeff           9 350 1.80000 # S_3 C_3
bond_coeff           10 350 1.36000 # S_3 H___A
bond_coeff           11 525 1.35000 # O_R C_R
bond_coeff           12 350 0.98000 # O_R H___A
bond_coeff           13 350 1.46000 # C_R C_3


angle_coeff          1 50 109.47100 # X C_3 X
angle_coeff          2 50 106.70000 # X N_3 X
angle_coeff          3 50 120 # X C_R X
angle_coeff          4 50 92.10000 # X S_3 X
angle_coeff          5 50 120 # X O_R X


dihedral_coeff       1 0.08333 -1 6 # C_R C_R C_3 X
dihedral_coeff       2 0.08333 -1 6 # O_2 C_R C_3 X
dihedral_coeff       3 0.08333 -1 6 # O_R C_R C_3 X
dihedral_coeff       4 0.11111 1 3 # X C_3 C_3 X
dihedral_coeff       5 0.16667 1 3 # X C_R C_3 X
dihedral_coeff       6 3.12500 -1 2 # X C_R C_R X
dihedral_coeff       7 0.16667 1 3 # X N_3 C_3 X
dihedral_coeff       8 0.12500 -1 6 # X N_3 C_R C_R
dihedral_coeff       9 6.25000 -1 2 # X O_R C_R X
dihedral_coeff       10 0.33333 1 3 # X S_3 C_3 X
dihedral_coeff       11 0.50000 -1 2 # X S_3 C_R X

improper_coeff       1 13.33333 0 # C_R X X X

timestep             1

print                .
.
print                ==========================================
==========================================
print                "500 steps CG Minimization"
500 steps CG Minimization
print                ==========================================
==========================================
print                .
.

dump                 1 all custom 25 ${sname}.min.lammps id type xu yu zu vx vy vz
dump                 1 all custom 25 combined_mc.min.lammps id type xu yu zu vx vy vz
thermo               10
min_style            sd
minimize             1.0e-4 1.0e-4 500 5000

CITE-CITE-CITE-CITE-CITE-CITE-CITE-CITE-CITE-CITE-CITE-CITE-CITE

Your simulation uses code contributions which should be cited:

- neighbor multi command: doi:10.1016/j.cpc.2008.03.005, doi:10.1007/s40571-020-00361-2

@Article{Intveld08,
 author =  {in 't Veld, P. J. and S. J.~Plimpton and G. S. Grest},
 title =   {Accurate and Efficient Methods for Modeling Colloidal
            Mixtures in an Explicit Solvent using Molecular Dynamics},
 journal = {Comput.\ Phys.\ Commut.},
 year =    2008,
 volume =  179,
 pages =   {320--329}
}

@article{Shire2020,
 author = {Shire, Tom and Hanley, Kevin J. and Stratford, Kevin},
 title = {{DEM} Simulations of Polydisperse Media: Efficient Contact
          Detection Applied to Investigate the Quasi-Static Limit},
 journal = {Computational Particle Mechanics},
 year = {2020}
}

CITE-CITE-CITE-CITE-CITE-CITE-CITE-CITE-CITE-CITE-CITE-CITE-CITE

Switching to 'neigh_modify every 1 delay 0 check yes' setting during minimization
PPPM initialization ...
WARNING: System is not charge neutral, net charge = 8.9862 (src/kspace.cpp:327)
  using 12-bit tables for long-range coulomb (src/kspace.cpp:342)
  G vector (1/distance) = 0.16358302
  grid = 5 5 5
  stencil order = 5
  estimated absolute RMS force accuracy = 0.13592732
  estimated relative force accuracy = 0.00040934109
  using double precision FFTW3
  3d grid and FFT values/proc = 1000 125
Generated 28 of 28 mixed pair_coeff terms from geometric mixing rule
Neighbor list info ...
  update: every = 1 steps, delay = 0 steps, check = yes
  max neighbors/atom: 2000, page size: 100000
  master list distance cutoff = 16
  ghost atom cutoff = 16
  binsize = 8, bins = 3 3 3
  1 neighbor lists, perpetual/occasional/extra = 1 0 0
  (1) pair lj/cut/coul/long, perpetual
      attributes: half, newton on
      pair build: half/multi/newton
      stencil: half/multi/3d
      bin: multi
Per MPI rank memory allocation (min/avg/max) = 31.91 | 31.91 | 31.91 Mbytes
------------ Step              0 ----- CPU =            0 (sec) -------------
TotEng   = 1560467120.071242 KinEng   =       0.000000 Temp     =       0.000000 
PotEng   = 1560467120.071242 E_bond   =    4870.879773 E_angle  =    4040.659321 
E_dihed  =      48.515035 E_impro  =      41.965965 E_vdwl   = 1560468122.149235 
E_coul   =   -9577.861185 E_long   =    -426.236902 Press    = 53499919043.833656
------------ Step             10 ----- CPU =  0.005761433 (sec) -------------
TotEng   =   45040.222660 KinEng   =       0.000000 Temp     =       0.000000 
PotEng   =   45040.222660 E_bond   =    5257.217290 E_angle  =    4002.875820 
E_dihed  =      55.230073 E_impro  =      45.718194 E_vdwl   =   44428.869733 
E_coul   =   -8355.718838 E_long   =    -393.969611 Press    = 1571717.571334
------------ Step             20 ----- CPU =  0.009896504 (sec) -------------
TotEng   =   -3839.835417 KinEng   =       0.000000 Temp     =       0.000000 
PotEng   =   -3839.835417 E_bond   =    1043.492127 E_angle  =    3260.672241 
E_dihed  =      43.022299 E_impro  =      85.905720 E_vdwl   =    1914.910877 
E_coul   =   -9577.494172 E_long   =    -610.344509 Press    =   77612.585144
------------ Step             30 ----- CPU =   0.01429702 (sec) -------------
TotEng   =   -9517.259639 KinEng   =       0.000000 Temp     =       0.000000 
PotEng   =   -9517.259639 E_bond   =     360.829889 E_angle  =    2463.633130 
E_dihed  =      54.109898 E_impro  =      51.316436 E_vdwl   =    1406.858932 
E_coul   =  -12590.070035 E_long   =   -1263.937890 Press    =   27069.556856
------------ Step             40 ----- CPU =   0.01854451 (sec) -------------
TotEng   =  -12345.867373 KinEng   =       0.000000 Temp     =       0.000000 
PotEng   =  -12345.867373 E_bond   =     280.726518 E_angle  =    2240.449195 
E_dihed  =      63.567082 E_impro  =      41.730389 E_vdwl   =    1271.476850 
E_coul   =  -14539.044373 E_long   =   -1704.773034 Press    =    6486.159564
------------ Step             50 ----- CPU =   0.02333599 (sec) -------------
TotEng   =  -13905.070063 KinEng   =       0.000000 Temp     =       0.000000 
PotEng   =  -13905.070063 E_bond   =     352.437741 E_angle  =    2171.752814 
E_dihed  =      97.169542 E_impro  =      50.487398 E_vdwl   =    1315.820643 
E_coul   =  -15983.036977 E_long   =   -1909.701224 Press    =   -1254.335302
------------ Step             60 ----- CPU =   0.02842938 (sec) -------------
TotEng   =  -14950.461159 KinEng   =       0.000000 Temp     =       0.000000 
PotEng   =  -14950.461159 E_bond   =     329.344348 E_angle  =    2090.822174 
E_dihed  =     135.591252 E_impro  =      58.256600 E_vdwl   =    1363.504800 
E_coul   =  -16893.770105 E_long   =   -2034.210228 Press    =   -6587.510141
------------ Step             70 ----- CPU =   0.03542902 (sec) -------------
TotEng   =  -15447.958056 KinEng   =       0.000000 Temp     =       0.000000 
PotEng   =  -15447.958056 E_bond   =     326.474313 E_angle  =    2047.673780 
E_dihed  =     155.452194 E_impro  =      95.975301 E_vdwl   =    1271.957775 
E_coul   =  -17235.176784 E_long   =   -2110.314635 Press    =  -13329.641672
------------ Step             80 ----- CPU =   0.04134998 (sec) -------------
TotEng   =  -15833.751764 KinEng   =       0.000000 Temp     =       0.000000 
PotEng   =  -15833.751764 E_bond   =     339.522945 E_angle  =    2064.525999 
E_dihed  =     156.569607 E_impro  =      91.354649 E_vdwl   =    1327.464686 
E_coul   =  -17644.690320 E_long   =   -2168.499331 Press    =  -13555.785615
------------ Step             90 ----- CPU =   0.04832789 (sec) -------------
TotEng   =  -16121.696175 KinEng   =       0.000000 Temp     =       0.000000 
PotEng   =  -16121.696175 E_bond   =     354.264012 E_angle  =    2077.936432 
E_dihed  =     164.457408 E_impro  =      91.731601 E_vdwl   =    1287.163002 
E_coul   =  -17893.579164 E_long   =   -2203.669466 Press    =  -16067.907405
------------ Step            100 ----- CPU =   0.05453252 (sec) -------------
TotEng   =  -16527.105697 KinEng   =       0.000000 Temp     =       0.000000 
PotEng   =  -16527.105697 E_bond   =     364.951984 E_angle  =    1966.507801 
E_dihed  =     166.813332 E_impro  =      95.066757 E_vdwl   =    1382.583834 
E_coul   =  -18254.975342 E_long   =   -2248.054062 Press    =  -14693.151377
------------ Step            110 ----- CPU =   0.06184543 (sec) -------------
TotEng   =  -16917.442844 KinEng   =       0.000000 Temp     =       0.000000 
PotEng   =  -16917.442844 E_bond   =     387.904404 E_angle  =    1843.339107 
E_dihed  =     168.198947 E_impro  =      66.637228 E_vdwl   =    1406.459878 
E_coul   =  -18490.724301 E_long   =   -2299.258108 Press    =  -15716.293040
------------ Step            120 ----- CPU =   0.06858368 (sec) -------------
TotEng   =  -17185.182048 KinEng   =       0.000000 Temp     =       0.000000 
PotEng   =  -17185.182048 E_bond   =     393.345130 E_angle  =    1760.943919 
E_dihed  =     172.471529 E_impro  =      68.405672 E_vdwl   =    1389.377106 
E_coul   =  -18628.365896 E_long   =   -2341.359507 Press    =  -16971.105652
------------ Step            130 ----- CPU =   0.07546979 (sec) -------------
TotEng   =  -17428.424337 KinEng   =       0.000000 Temp     =       0.000000 
PotEng   =  -17428.424337 E_bond   =     399.690005 E_angle  =    1689.159653 
E_dihed  =     176.461445 E_impro  =      68.294246 E_vdwl   =    1382.078601 
E_coul   =  -18766.702275 E_long   =   -2377.406012 Press    =  -18026.653911
------------ Step            140 ----- CPU =   0.08313576 (sec) -------------
TotEng   =  -17618.370607 KinEng   =       0.000000 Temp     =       0.000000 
PotEng   =  -17618.370607 E_bond   =     408.377858 E_angle  =    1650.917843 
E_dihed  =     181.713387 E_impro  =      67.888027 E_vdwl   =    1359.886191 
E_coul   =  -18879.854953 E_long   =   -2407.298959 Press    =  -19532.059016
------------ Step            150 ----- CPU =   0.08906077 (sec) -------------
TotEng   =  -17852.652873 KinEng   =       0.000000 Temp     =       0.000000 
PotEng   =  -17852.652873 E_bond   =     425.888024 E_angle  =    1632.750923 
E_dihed  =     188.283844 E_impro  =      68.113807 E_vdwl   =    1356.192310 
E_coul   =  -19075.811907 E_long   =   -2448.069874 Press    =  -20801.998481
------------ Step            160 ----- CPU =   0.09572227 (sec) -------------
TotEng   =  -18128.560347 KinEng   =       0.000000 Temp     =       0.000000 
PotEng   =  -18128.560347 E_bond   =     445.124235 E_angle  =    1649.876561 
E_dihed  =     185.747258 E_impro  =      74.004531 E_vdwl   =    1332.353038 
E_coul   =  -19324.112840 E_long   =   -2491.553129 Press    =  -22836.357014
------------ Step            170 ----- CPU =    0.1017741 (sec) -------------
TotEng   =  -18343.626912 KinEng   =       0.000000 Temp     =       0.000000 
PotEng   =  -18343.626912 E_bond   =     436.574526 E_angle  =    1663.985572 
E_dihed  =     188.111596 E_impro  =      79.618489 E_vdwl   =    1376.373229 
E_coul   =  -19555.526163 E_long   =   -2532.764159 Press    =  -22537.243996
------------ Step            180 ----- CPU =    0.1079714 (sec) -------------
TotEng   =  -18594.764923 KinEng   =       0.000000 Temp     =       0.000000 
PotEng   =  -18594.764923 E_bond   =     448.006898 E_angle  =    1681.401373 
E_dihed  =     181.434279 E_impro  =      82.505669 E_vdwl   =    1332.962360 
E_coul   =  -19732.781742 E_long   =   -2588.293759 Press    =  -24835.264810
------------ Step            190 ----- CPU =    0.1153395 (sec) -------------
TotEng   =  -18832.873045 KinEng   =       0.000000 Temp     =       0.000000 
PotEng   =  -18832.873045 E_bond   =     449.325839 E_angle  =    1644.821325 
E_dihed  =     176.513080 E_impro  =      90.176099 E_vdwl   =    1425.315641 
E_coul   =  -19989.474482 E_long   =   -2629.550547 Press    =  -22096.708302
------------ Step            200 ----- CPU =    0.1219321 (sec) -------------
TotEng   =  -18962.485493 KinEng   =       0.000000 Temp     =       0.000000 
PotEng   =  -18962.485493 E_bond   =     434.056601 E_angle  =    1627.211436 
E_dihed  =     176.803800 E_impro  =      89.986569 E_vdwl   =    1446.230564 
E_coul   =  -20090.991007 E_long   =   -2645.783457 Press    =  -20986.652913
------------ Step            210 ----- CPU =     0.128591 (sec) -------------
TotEng   =  -19129.249360 KinEng   =       0.000000 Temp     =       0.000000 
PotEng   =  -19129.249360 E_bond   =     410.348650 E_angle  =    1624.318728 
E_dihed  =     175.236094 E_impro  =      93.196520 E_vdwl   =    1498.077777 
E_coul   =  -20263.163144 E_long   =   -2667.263986 Press    =  -19102.534362
------------ Step            220 ----- CPU =    0.1343945 (sec) -------------
TotEng   =  -19252.675565 KinEng   =       0.000000 Temp     =       0.000000 
PotEng   =  -19252.675565 E_bond   =     414.426294 E_angle  =    1632.769662 
E_dihed  =     169.779095 E_impro  =      88.859309 E_vdwl   =    1532.881015 
E_coul   =  -20406.875936 E_long   =   -2684.515004 Press    =  -18039.625469
------------ Step            230 ----- CPU =    0.1412806 (sec) -------------
TotEng   =  -19374.189236 KinEng   =       0.000000 Temp     =       0.000000 
PotEng   =  -19374.189236 E_bond   =     435.049421 E_angle  =    1646.112105 
E_dihed  =     165.012255 E_impro  =      93.067331 E_vdwl   =    1473.928885 
E_coul   =  -20483.648657 E_long   =   -2703.710577 Press    =  -20399.871206
------------ Step            240 ----- CPU =     0.146742 (sec) -------------
TotEng   =  -19538.512818 KinEng   =       0.000000 Temp     =       0.000000 
PotEng   =  -19538.512818 E_bond   =     437.365723 E_angle  =    1639.230608 
E_dihed  =     162.424335 E_impro  =      90.977792 E_vdwl   =    1496.652851 
E_coul   =  -20643.056042 E_long   =   -2722.108084 Press    =  -19373.395366
------------ Step            250 ----- CPU =    0.1527063 (sec) -------------
TotEng   =  -19676.461743 KinEng   =       0.000000 Temp     =       0.000000 
PotEng   =  -19676.461743 E_bond   =     427.113381 E_angle  =    1626.562982 
E_dihed  =     161.206425 E_impro  =      82.506671 E_vdwl   =    1512.595515 
E_coul   =  -20752.416619 E_long   =   -2734.030099 Press    =  -18295.014183
------------ Step            252 ----- CPU =    0.1752761 (sec) -------------
TotEng   =  -19706.953083 KinEng   =       0.000000 Temp     =       0.000000 
PotEng   =  -19706.953083 E_bond   =     417.215904 E_angle  =    1619.888018 
E_dihed  =     160.061864 E_impro  =      81.537462 E_vdwl   =    1492.285159 
E_coul   =  -20740.626607 E_long   =   -2737.314883 Press    =  -18616.987650
Loop time of 0.17529 on 1 procs for 252 steps with 122 atoms

98.6% CPU use with 1 MPI tasks x 1 OpenMP threads

Minimization stats:
  Stopping criterion = linesearch alpha is zero
  Energy initial, next-to-last, final = 
      1560467120.07124  -19706.9530833739  -19706.9530833739
  Force two-norm initial, final = 6.0692817e+10 163.10724
  Force max component initial, final = 3.4554307e+10 65.167285
  Final line search alpha, max atom move = 3.5728148e-13 2.3283064e-11
  Iterations, force evaluations = 252 482

MPI task timing breakdown:
Section |  min time  |  avg time  |  max time  |%varavg| %total
---------------------------------------------------------------
Pair    | 0.11822    | 0.11822    | 0.11822    |   0.0 | 67.44
Bond    | 0.016253   | 0.016253   | 0.016253   |   0.0 |  9.27
Kspace  | 0.022385   | 0.022385   | 0.022385   |   0.0 | 12.77
Neigh   | 0.010283   | 0.010283   | 0.010283   |   0.0 |  5.87
Comm    | 0.0043356  | 0.0043356  | 0.0043356  |   0.0 |  2.47
Output  | 0.0021793  | 0.0021793  | 0.0021793  |   0.0 |  1.24
Modify  | 0          | 0          | 0          |   0.0 |  0.00
Other   |            | 0.001633   |            |       |  0.93

Nlocal:            122 ave         122 max         122 min
Histogram: 1 0 0 0 0 0 0 0 0 0
Nghost:           2395 ave        2395 max        2395 min
Histogram: 1 0 0 0 0 0 0 0 0 0
Neighs:          13237 ave       13237 max       13237 min
Histogram: 1 0 0 0 0 0 0 0 0 0

Total # of neighbors = 13237
Ave neighs/atom = 108.5
Ave special neighs/atom = 10.967213
Neighbor list builds = 12
Dangerous builds = 0
min_style            cg
minimize             1.0e-4 1.0e-4 500 5000
Switching to 'neigh_modify every 1 delay 0 check yes' setting during minimization
PPPM initialization ...
  using 12-bit tables for long-range coulomb (src/kspace.cpp:342)
  G vector (1/distance) = 0.16358302
  grid = 5 5 5
  stencil order = 5
  estimated absolute RMS force accuracy = 0.13592732
  estimated relative force accuracy = 0.00040934109
  using double precision FFTW3
  3d grid and FFT values/proc = 1000 125
Generated 28 of 28 mixed pair_coeff terms from geometric mixing rule
Per MPI rank memory allocation (min/avg/max) = 31.91 | 31.91 | 31.91 Mbytes
------------ Step            252 ----- CPU =            0 (sec) -------------
TotEng   =  -19706.953083 KinEng   =       0.000000 Temp     =       0.000000 
PotEng   =  -19706.953083 E_bond   =     417.215904 E_angle  =    1619.888018 
E_dihed  =     160.061864 E_impro  =      81.537462 E_vdwl   =    1492.285159 
E_coul   =  -20740.626607 E_long   =   -2737.314883 Press    =  -18616.987650
------------ Step            253 ----- CPU =    0.0220286 (sec) -------------
TotEng   =  -19706.953083 KinEng   =       0.000000 Temp     =       0.000000 
PotEng   =  -19706.953083 E_bond   =     417.215904 E_angle  =    1619.888018 
E_dihed  =     160.061864 E_impro  =      81.537462 E_vdwl   =    1492.285159 
E_coul   =  -20740.626607 E_long   =   -2737.314883 Press    =  -18616.987650
Loop time of 0.022058 on 1 procs for 1 steps with 122 atoms

99.4% CPU use with 1 MPI tasks x 1 OpenMP threads

Minimization stats:
  Stopping criterion = linesearch alpha is zero
  Energy initial, next-to-last, final = 
     -19706.9530833739  -19706.9530833739  -19706.9530833739
  Force two-norm initial, final = 163.10724 163.10724
  Force max component initial, final = 65.167285 65.167285
  Final line search alpha, max atom move = 3.5728148e-13 2.3283064e-11
  Iterations, force evaluations = 1 65

MPI task timing breakdown:
Section |  min time  |  avg time  |  max time  |%varavg| %total
---------------------------------------------------------------
Pair    | 0.015933   | 0.015933   | 0.015933   |   0.0 | 72.23
Bond    | 0.002215   | 0.002215   | 0.002215   |   0.0 | 10.04
Kspace  | 0.0030637  | 0.0030637  | 0.0030637  |   0.0 | 13.89
Neigh   | 0          | 0          | 0          |   0.0 |  0.00
Comm    | 0.00052548 | 0.00052548 | 0.00052548 |   0.0 |  2.38
Output  | 0          | 0          | 0          |   0.0 |  0.00
Modify  | 0          | 0          | 0          |   0.0 |  0.00
Other   |            | 0.0003206  |            |       |  1.45

Nlocal:            122 ave         122 max         122 min
Histogram: 1 0 0 0 0 0 0 0 0 0
Nghost:           2379 ave        2379 max        2379 min
Histogram: 1 0 0 0 0 0 0 0 0 0
Neighs:          13261 ave       13261 max       13261 min
Histogram: 1 0 0 0 0 0 0 0 0 0

Total # of neighbors = 13261
Ave neighs/atom = 108.69672
Ave special neighs/atom = 10.967213
Neighbor list builds = 0
Dangerous builds = 0
#now                 minimize the entire system
minimize             1.0e-4 1.0e-4 500 5000
Switching to 'neigh_modify every 1 delay 0 check yes' setting during minimization
PPPM initialization ...
  using 12-bit tables for long-range coulomb (src/kspace.cpp:342)
  G vector (1/distance) = 0.16358302
  grid = 5 5 5
  stencil order = 5
  estimated absolute RMS force accuracy = 0.13592732
  estimated relative force accuracy = 0.00040934109
  using double precision FFTW3
  3d grid and FFT values/proc = 1000 125
Generated 28 of 28 mixed pair_coeff terms from geometric mixing rule
Per MPI rank memory allocation (min/avg/max) = 31.91 | 31.91 | 31.91 Mbytes
------------ Step            253 ----- CPU =            0 (sec) -------------
TotEng   =  -19706.953083 KinEng   =       0.000000 Temp     =       0.000000 
PotEng   =  -19706.953083 E_bond   =     417.215904 E_angle  =    1619.888018 
E_dihed  =     160.061864 E_impro  =      81.537462 E_vdwl   =    1492.285159 
E_coul   =  -20740.626607 E_long   =   -2737.314883 Press    =  -18616.987650
------------ Step            254 ----- CPU =    0.0220374 (sec) -------------
TotEng   =  -19706.953083 KinEng   =       0.000000 Temp     =       0.000000 
PotEng   =  -19706.953083 E_bond   =     417.215904 E_angle  =    1619.888018 
E_dihed  =     160.061864 E_impro  =      81.537462 E_vdwl   =    1492.285159 
E_coul   =  -20740.626607 E_long   =   -2737.314883 Press    =  -18616.987650
Loop time of 0.0220649 on 1 procs for 1 steps with 122 atoms

99.6% CPU use with 1 MPI tasks x 1 OpenMP threads

Minimization stats:
  Stopping criterion = linesearch alpha is zero
  Energy initial, next-to-last, final = 
     -19706.9530833739  -19706.9530833739  -19706.9530833739
  Force two-norm initial, final = 163.10724 163.10724
  Force max component initial, final = 65.167285 65.167285
  Final line search alpha, max atom move = 3.5728148e-13 2.3283064e-11
  Iterations, force evaluations = 1 65

MPI task timing breakdown:
Section |  min time  |  avg time  |  max time  |%varavg| %total
---------------------------------------------------------------
Pair    | 0.015969   | 0.015969   | 0.015969   |   0.0 | 72.37
Bond    | 0.0021942  | 0.0021942  | 0.0021942  |   0.0 |  9.94
Kspace  | 0.003065   | 0.003065   | 0.003065   |   0.0 | 13.89
Neigh   | 0          | 0          | 0          |   0.0 |  0.00
Comm    | 0.00051926 | 0.00051926 | 0.00051926 |   0.0 |  2.35
Output  | 0          | 0          | 0          |   0.0 |  0.00
Modify  | 0          | 0          | 0          |   0.0 |  0.00
Other   |            | 0.0003177  |            |       |  1.44

Nlocal:            122 ave         122 max         122 min
Histogram: 1 0 0 0 0 0 0 0 0 0
Nghost:           2379 ave        2379 max        2379 min
Histogram: 1 0 0 0 0 0 0 0 0 0
Neighs:          13261 ave       13261 max       13261 min
Histogram: 1 0 0 0 0 0 0 0 0 0

Total # of neighbors = 13261
Ave neighs/atom = 108.69672
Ave special neighs/atom = 10.967213
Neighbor list builds = 0
Dangerous builds = 0
undump               1
Total wall time: 0:00:00
