ITEM: TIMESTEP
0
ITEM: NUMBER OF ATOMS
976
ITEM: BOX BOUNDS pp pp pp
0.0000000000000000e+00 2.0000000000000000e+01
0.0000000000000000e+00 2.0000000000000000e+01
0.0000000000000000e+00 2.0000000000000000e+01
ITEM: ATOMS id type xu yu zu vx vy vz
69 1 3.37449 5.82304 7.82053 0 0 0
70 1 2.72359 5.3662 6.68139 0 0 0
71 1 3.76601 4.6991 5.91436 0 0 0
72 2 5.08452 5.08936 6.58461 0 0 0
73 3 6.0469 4.27322 6.15133 0 0 0
74 3 7.18583 4.33753 6.78277 0 0 0
75 3 8.21089 3.77956 6.21013 0 0 0
76 3 8.31502 3.12473 5.04379 0 0 0
77 3 9.43256 2.35329 4.54782 0 0 0
79 3 9.32731 1.84415 3.12666 0 0 0
80 3 8.05412 1.8212 2.51145 0 0 0
81 3 7.94027 1.19893 1.30737 0 0 0
82 3 9.0996 0.599598 0.718503 0 0 0
97 3 7.1761 3.06042 4.41235 0 0 0
98 3 6.15103 3.61839 4.98499 0 0 0
99 1 4.85134 5.36808 7.64194 0 0 0
100 6 3.00489 6.00609 7.99342 0 0 0
101 6 3.22135 6.25079 8.54412 0 0 0
102 6 2.21973 5.59062 6.87051 0 0 0
103 6 1.91956 5.33712 6.26584 0 0 0
104 6 3.63328 4.46321 5.41764 0 0 0
105 6 3.81807 4.37168 5.33119 0 0 0
106 6 7.1287 4.747 7.73096 0 0 0
107 6 9.07776 3.7314 6.72611 0 0 0
108 6 7.2435 2.15142 2.97389 0 0 0
109 6 7.03162 1.07498 0.884301 0 0 0
133 6 7.19144 2.47884 3.55706 0 0 0
134 6 5.24238 3.49444 4.56191 0 0 0
135 6 5.0535 5.16741 7.36111 0 0 0
136 6 5.48641 5.6568 8.46251 0 0 0
151 5 0.909424 9.9658 1.09425 0 0 0
180 6 0.158788 7.74857 2.50152 0 0 0
220 1 9.99131 8.45318 0.153225 0 0 0
223 1 9.8762 4.63622 0.630278 0 0 0
225 1 9.72325 2.14851 0.351231 0 0 0
257 6 9.91096 2.02814 0.712167 0 0 0
335 6 0.672882 0.83755 9.11473 0 0 0
403 6 8.82031 0.55386 9.51058 0 0 0
450 6 0.0506042 9.15255 8.58781 0 0 0
507 1 9.85732 20.6542 9.56125 0 0 0
543 6 9.86302 20.2542 9.56695 0 0 0
544 6 9.86308 21.04 8.55571 0 0 0
604 3 9.75335 2.02728 3.68875 0 0 0
609 3 8.48017 2.00433 3.07355 0 0 0
612 3 7.78179 1.04316 0.978691 0 0 0
613 4 7.36062 2.30332 2.90861 0 0 0
615 4 7.04461 1.88171 1.98537 0 0 0
625 5 9.97286 1.71747 3.21353 0 0 0
626 5 9.58286 2.56417 4.60673 0 0 0
634 5 7.1799 0.813404 0.282307 0 0 0
635 5 8.26066 2.31413 3.54877 0 0 0
636 5 8.65066 1.46744 2.15557 0 0 0
641 5 8.8717 0.880385 1.16738 0 0 0
642 5 7.76596 0.875046 0.660119 0 0 0
643 5 6.76291 2.68304 3.77381 0 0 0
646 5 6.2478 1.90759 2.10547 0 0 0
661 3 2.21184 9.803 2.51931 0 0 0
665 3 1.67549 8.60258 3.24821 0 0 0
668 3 0.485758 7.94332 2.76871 0 0 0
683 5 1.77233 9.89131 1.82 0 0 0
684 5 0.907113 9.87309 0.988696 0 0 0
686 5 2.24551 9.98055 2.19167 0 0 0
693 5 1.78572 8.2268 3.57478 0 0 0
694 5 2.21833 8.23592 3.99043 0 0 0
698 5 0.0147107 8.11023 1.95615 0 0 0
699 5 0.447321 8.11934 2.3718 0 0 0
703 5 0.0280929 6.44573 3.71093 0 0 0
704 5 0.460703 6.45484 4.12658 0 0 0
763 3 0.00536664 2.62104 8.20393 0 0 0
765 3 0.684695 1.73557 8.27076 0 0 0
767 3 1.52768 0.584155 8.38744 0 0 0
782 5 0.649766 2.88532 7.69905 0 0 0
785 5 1.21299 2.31963 7.64644 0 0 0
786 5 0.145781 1.56301 8.91867 0 0 0
789 5 2.17208 0.848442 7.88257 0 0 0
790 5 1.15242 0.145638 9.08522 0 0 0
800 5 2.78286 0.336572 7.76037 0 0 0
819 3 7.60227 0.732324 9.56887 0 0 0
821 3 8.45399 0.62993 8.42253 0 0 0
826 3 8.95141 0.721079 7.44057 0 0 0
832 3 9.80313 0.618684 6.29423 0 0 0
836 5 6.43696 1.15636 9.90391 0 0 0
839 5 6.7771 1.15393 9.17983 0 0 0
843 5 7.92735 0.9852 7.8425 0 0 0
844 5 9.25312 0.430033 8.79861 0 0 0
853 5 9.50777 0.460307 8.03425 0 0 0
854 5 8.18201 1.01547 7.07814 0 0 0
864 5 9.28974 0.84705 5.83132 0 0 0
870 2 0.0474756 8.02081 5.83005 0 0 0
880 3 0.732817 9.73367 7.25005 0 0 0
886 3 0.395093 8.5244 6.56187 0 0 0
888 4 0.469514 7.60216 6.06797 0 0 0
907 5 0.412162 9.5357 8.01685 0 0 0
918 5 0.684652 8.74453 5.93123 0 0 0
922 6 0.0455178 5.94262 4.99273 0 0 0
923 1 9.61653 4.40507 8.61133 0 0 0
924 2 9.80228 5.80061 8.09369 0 0 0
929 3 9.95611 9.19998 7.84746 0 0 0
63 6 -0.678292 1.15184 0.388785 0 0 0
78 4 10.5922 2.83908 4.89304 0 0 0
95 3 10.2891 0.613743 1.27974 0 0 0
96 3 10.4029 1.23602 2.48382 0 0 0
131 6 11.1084 0.0612464 0.839996 0 0 0
132 6 11.3535 1.19666 3.05376 0 0 0
152 1 -0.467511 8.76596 0.821446 0 0 0
153 1 -0.418026 7.73642 1.94732 0 0 0
154 1 -1.68199 6.81949 1.83944 0 0 0
155 1 -1.6325 5.78995 2.96531 0 0 0
156 1 -2.84028 4.81321 2.80027 0 0 0
157 1 -2.7908 3.78367 3.92614 0 0 0
158 1 -3.99858 2.80693 3.7611 0 0 0
159 1 -3.9491 1.77739 4.88698 0 0 0
160 1 -5.06014 0.820976 4.62079 0 0 0
178 6 -1.04433 8.75381 0.267245 0 0 0
179 6 -0.715355 8.84001 0.50037 0 0 0
181 6 -0.170183 7.66236 2.2684 0 0 0
182 6 -2.20262 6.74753 1.22808 0 0 0
183 6 -1.87365 6.83374 1.4612 0 0 0
184 6 -0.99951 5.74229 3.46236 0 0 0
185 6 -1.32848 5.65609 3.22923 0 0 0
186 6 -3.36092 4.74126 2.18891 0 0 0
187 6 -3.03195 4.82746 2.42203 0 0 0
188 6 -2.15781 3.73601 4.42319 0 0 0
189 6 -2.48678 3.64981 4.19006 0 0 0
190 6 -4.47865 2.81511 3.10576 0 0 0
191 6 -4.14968 2.90131 3.33889 0 0 0
192 6 -3.3161 1.72973 5.38402 0 0 0
193 6 -3.64507 1.64353 5.15089 0 0 0
194 6 -5.63695 0.808829 4.06659 0 0 0
195 6 -5.30798 0.895032 4.29972 0 0 0
205 1 10.695 21.7078 1.18744 0 0 0
206 1 10.9501 20.9572 2.32826 0 0 0
219 5 10.238 9.80275 1.38927 0 0 0
221 1 10.1262 7.12065 0.885456 0 0 0
235 1 10.3876 20.6568 0.0825086 0 0 0
236 6 10.7593 22.0986 1.39513 0 0 0
237 6 10.6576 22.5196 0.92347 0 0 0
238 6 11.0423 21.4435 2.6364 0 0 0
239 6 11.1678 21.0183 3.20511 0 0 0
248 6 10.316 7.08621 1.66186 0 0 0
249 6 10.2169 7.00358 1.27026 0 0 0
252 6 10.163 4.59849 1.38281 0 0 0
253 6 10.0639 4.51586 0.991213 0 0 0
256 6 10.0101 2.11078 1.10377 0 0 0
271 6 10.3707 20.2574 0.0689173 0 0 0
278 3 -5.08069 6.82219 9.38027 0 0 0
279 3 -3.99807 6.24275 8.95344 0 0 0
280 3 -3.43856 5.0713 9.29203 0 0 0
281 3 -2.1325 4.56669 8.93208 0 0 0
282 4 -1.75514 4.91251 7.73291 0 0 0
283 3 -1.82114 3.14205 9.33638 0 0 0
299 3 -0.27412 1.28352 9.38731 0 0 0
300 3 -0.668114 2.49191 8.90297 0 0 0
310 6 -5.4238 7.77355 9.16306 0 0 0
311 6 -3.39937 6.7561 8.32255 0 0 0
334 7 10.874 -10.6271 8.9436 0 0 0
336 6 -0.0218548 3.05907 8.2025 0 0 0
340 6 -7.17181 8.51611 9.83616 0 0 0
362 1 13.4849 0.0100502 1.64954 0 0 0
382 6 10.1548 0.192805 8.37092 0 0 0
383 6 10.4542 0.0622671 8.62251 0 0 0
386 6 11.0468 0.250615 6.02763 0 0 0
387 6 11.3462 0.120077 6.27921 0 0 0
390 6 11.9387 0.308424 3.68433 0 0 0
391 6 12.2382 0.177886 3.93591 0 0 0
394 6 12.7882 0.366538 1.43154 0 0 0
395 6 13.0876 0.236 1.68313 0 0 0
424 1 -0.313186 8.72944 9.16108 0 0 0
425 1 -0.863901 7.33077 8.8957 0 0 0
426 1 -0.669601 6.99876 7.37846 0 0 0
427 1 -1.22032 5.60009 7.11308 0 0 0
428 1 -0.938122 5.22845 5.62236 0 0 0
429 1 -1.48884 3.82977 5.35698 0 0 0
430 1 -1.20664 3.45813 3.86626 0 0 0
431 1 -1.75736 2.05946 3.60089 0 0 0
432 1 -1.37289 1.72322 2.2012 0 0 0
433 1 -1.93798 0.249505 1.87131 0 0 0
451 6 -0.116912 9.01604 8.93895 0 0 0
452 6 -1.22769 6.90766 9.46897 0 0 0
453 6 -1.06017 7.04417 9.11782 0 0 0
454 6 -0.217917 7.38223 6.83171 0 0 0
455 6 -0.385433 7.24572 7.18286 0 0 0
456 6 -1.49621 5.13734 7.71287 0 0 0
457 6 -1.3287 5.27385 7.36173 0 0 0
458 6 -0.486438 5.61192 5.07561 0 0 0
459 6 -0.653954 5.47541 5.42676 0 0 0
460 6 -1.76473 3.36703 5.95677 0 0 0
461 6 -1.59722 3.50354 5.60563 0 0 0
462 6 -0.74058 3.91664 3.38403 0 0 0
463 6 -0.908096 3.78013 3.73517 0 0 0
464 6 -2.03325 1.59671 4.20068 0 0 0
465 6 -1.86574 1.73322 3.84953 0 0 0
466 6 -1.0091 2.14633 1.62793 0 0 0
467 6 -1.17662 2.00982 1.97907 0 0 0
496 1 10.0012 3.45763 9.90552 0 0 0
498 1 10.0391 0.95532 9.74122 0 0 0
518 6 10.0345 8.45242 9.43537 0 0 0
519 6 10.0285 8.55804 9.83387 0 0 0
522 6 10.0724 5.9501 9.27107 0 0 0
523 6 10.0664 6.05572 9.66958 0 0 0
526 6 10.1103 3.44779 9.10677 0 0 0
527 6 10.1043 3.55341 9.50528 0 0 0
530 6 10.1468 1.04546 8.94105 0 0 0
531 6 10.1408 1.15108 9.33956 0 0 0
549 3 -0.73039 2.37068 0.563644 0 0 0
551 3 -1.35895 1.31697 1.30162 0 0 0
556 3 -2.03108 0.67233 1.89549 0 0 0
566 5 -0.821895 3.63721 0.369923 0 0 0
569 5 -1.25985 3.17422 0.853483 0 0 0
570 5 -0.26848 1.88704 0.0225975 0 0 0
573 5 -1.96074 1.78457 1.70062 0 0 0
574 5 -1.01532 0.578552 0.905818 0 0 0
583 5 -1.49923 0.196711 1.42546 0 0 0
584 5 -2.44465 1.40273 2.22026 0 0 0
594 5 -3.0908 0.0709582 3.00695 0 0 0
601 3 11.3711 1.17165 2.61595 0 0 0
602 3 10.9147 1.9004 3.76078 0 0 0
603 3 11.7595 0.602206 1.73571 0 0 0
619 5 10.5967 1.00634 2.17664 0 0 0
620 5 12.1716 1.00554 2.88356 0 0 0
621 5 10.758 2.13295 4.33643 0 0 0
622 5 11.7816 1.85223 4.27676 0 0 0
623 5 12.5759 0.604209 2.32189 0 0 0
624 5 10.9173 0.596201 1.561 0 0 0
653 1 -3.58307 5.80261 1.70945 0 0 0
654 2 -3.26333 6.79721 0.633105 0 0 0
670 3 -2.65762 7.34048 0.135127 0 0 0
671 3 -0.0505969 6.74289 3.49761 0 0 0
672 4 -2.82262 6.36128 0.472677 0 0 0
701 5 -1.89604 7.43579 0.783902 0 0 0
705 5 -0.846154 6.26877 3.03686 0 0 0
706 6 -3.41759 4.76324 1.56001 0 0 0
715 3 10.6987 9.49098 3.24509 0 0 0
719 3 10.6592 7.98888 3.29117 0 0 0
722 3 10.3407 7.24171 2.09939 0 0 0
725 3 10.3012 5.73961 2.14547 0 0 0
737 5 10.6145 9.72184 2.45162 0 0 0
738 5 10.3298 9.7735 1.28701 0 0 0
739 5 11.0499 9.84405 4.20532 0 0 0
740 5 10.761 9.79586 3.03732 0 0 0
747 5 10.8105 7.57326 3.54487 0 0 0
748 5 10.9528 7.54743 4.12717 0 0 0
752 5 10.237 7.57673 1.21226 0 0 0
753 5 10.3793 7.5509 1.79456 0 0 0
757 5 10.433 5.42815 2.30551 0 0 0
758 5 10.5753 5.40232 2.88781 0 0 0
759 5 10.1636 5.2758 1.23116 0 0 0
764 3 -0.837616 3.77246 8.08724 0 0 0
766 3 -1.68285 3.70439 8.89405 0 0 0
771 3 -2.48944 3.09233 9.88138 0 0 0
781 5 -0.369892 2.18252 8.9017 0 0 0
783 5 -1.11218 4.35023 8.05905 0 0 0
784 5 -0.238913 4.28581 7.45635 0 0 0
787 5 -1.30799 3.2263 8.92418 0 0 0
788 5 -2.19667 4.62678 8.68148 0 0 0
797 5 -2.8643 3.57042 9.85125 0 0 0
815 1 10.9744 0.00834785 4.30533 0 0 0
816 2 10.0111 0.36516 5.39842 0 0 0
834 4 10.403 0.866424 5.47034 0 0 0
863 5 10.6155 0.291883 6.78743 0 0 0
868 6 11.5098 0.762203 3.78094 0 0 0
869 1 -0.556984 6.78504 5.23214 0 0 0
884 3 -1.47096 6.84588 9.86042 0 0 0
887 3 -1.73211 5.66734 8.96441 0 0 0
914 5 -0.930661 7.50737 9.43554 0 0 0
915 5 -1.2035 7.19004 9.8655 0 0 0
917 5 -0.0452665 8.07056 7.34296 0 0 0
919 5 -1.7783 5.29679 8.94071 0 0 0
920 5 -2.05114 4.97946 9.37066 0 0 0
921 5 -1.30685 5.72847 8.02344 0 0 0
934 3 10.0718 8.10165 7.86428 0 0 0
940 3 10.0883 6.70616 8.18421 0 0 0
942 4 10.4013 5.7121 8.30184 0 0 0
951 5 10.0695 8.8902 7.053 0 0 0
952 5 10.0458 9.21412 8.74844 0 0 0
961 5 10.0583 8.41287 8.65987 0 0 0
962 5 10.0821 8.08895 6.96443 0 0 0
971 5 10.0754 6.82025 9.18262 0 0 0
972 5 10.0991 6.49633 7.48718 0 0 0
976 6 10.4264 3.71674 8.63032 0 0 0
177 6 2.51807 12.0974 0.095003 0 0 0
227 1 9.57029 -0.339211 0.0721846 0 0 0
260 6 9.85711 -0.376941 0.82472 0 0 0
261 6 9.75801 -0.459574 0.43312 0 0 0
264 6 9.70416 -2.86466 0.545673 0 0 0
265 6 9.60505 -2.94729 0.154074 0 0 0
290 1 2.78816 -2.90682 9.67624 0 0 0
292 1 4.64336 -4.56696 9.37268 0 0 0
293 1 5.17817 -5.91677 9.84386 0 0 0
294 1 6.49857 -6.2271 9.06911 0 0 0
295 1 7.03337 -7.57691 9.54029 0 0 0
296 1 8.33611 -7.77067 8.84363 0 0 0
297 1 8.94131 -9.19119 9.30824 0 0 0
314 6 1.36615 -0.770252 9.49466 0 0 0
315 6 1.10552 -0.914821 9.77957 0 0 0
318 6 3.22135 -2.4304 9.19109 0 0 0
319 6 2.96073 -2.57496 9.47601 0 0 0
322 6 5.07655 -4.09054 8.88753 0 0 0
323 6 4.81593 -4.23511 9.17244 0 0 0
326 6 6.86135 -5.67997 8.59053 0 0 0
327 6 6.60072 -5.82454 8.87544 0 0 0
329 6 6.96629 -7.81704 9.88356 0 0 0
330 6 8.71655 -7.34011 8.28697 0 0 0
331 6 8.45592 -7.48468 8.57188 0 0 0
332 6 8.56086 -9.62175 9.86491 0 0 0
333 6 8.82149 -9.47718 9.58 0 0 0
341 1 5.69674 -0.224649 20.9726 0 0 0
342 1 7.02024 -0.619307 20.8222 0 0 0
372 6 5.69765 -0.288852 21.4152 0 0 0
373 6 5.10013 -0.124081 21.5758 0 0 0
374 6 7.06411 -0.715917 21.3956 0 0 0
375 6 7.74712 -0.913398 21.2752 0 0 0
435 3 0.606347 11.3152 9.97847 0 0 0
471 6 0.732349 10.7367 9.07324 0 0 0
472 6 1.70203 13.0309 9.28859 0 0 0
480 2 9.56703 19.6557 9.97207 0 0 0
481 3 9.8898 18.4532 9.49265 0 0 0
482 3 9.90612 18.3349 8.1943 0 0 0
483 3 9.92894 17.1281 7.7115 0 0 0
484 3 9.93916 15.9368 8.32852 0 0 0
486 4 9.67978 14.5074 6.54542 0 0 0
487 3 9.97134 13.4415 8.66414 0 0 0
504 3 9.99558 12.1347 8.18277 0 0 0
505 3 9.92284 16.0551 9.62688 0 0 0
514 6 9.99901 19.2291 7.68266 0 0 0
585 5 0.461114 -4.34734 0.00818628 0 0 0
660 3 1.69364 10.1885 1.60668 0 0 0
662 3 2.39884 11.4107 0.845917 0 0 0
685 5 3.15129 10.0789 2.979 0 0 0
687 5 3.16945 11.6648 1.33747 0 0 0
688 5 2.37633 11.6481 0.575441 0 0 0
696 5 1.87162 11.6375 0.090516 0 0 0
761 1 4.36319 -3.37018 8.27281 0 0 0
762 2 3.7208 -2.01939 8.15999 0 0 0
772 3 2.35486 -0.147807 8.38663 0 0 0
778 3 3.19784 -1.29923 8.50331 0 0 0
780 4 4.01255 -1.92257 8.72169 0 0 0
799 5 1.7632 -0.366233 8.96302 0 0 0
809 5 2.65188 -1.76671 9.20572 0 0 0
810 5 3.67154 -1.06391 8.00308 0 0 0
814 6 5.27796 -3.49826 8.79892 0 0 0
871 3 1.38993 12.7393 9.18764 0 0 0
872 3 1.72765 13.9486 9.87582 0 0 0
873 3 1.14081 11.8081 8.62133 0 0 0
875 3 0.803089 10.5988 7.93315 0 0 0
889 5 1.06856 12.2237 9.85909 0 0 0
890 5 1.79847 12.8977 8.44736 0 0 0
892 5 2.2559 14.3628 9.12124 0 0 0
893 5 1.68345 12.2973 7.93127 0 0 0
894 5 0.908052 11.5705 9.41466 0 0 0
897 5 1.21164 10.7571 7.19287 0 0 0
898 5 0.481719 10.0832 8.6046 0 0 0
908 5 1.14208 10.2097 6.60512 0 0 0
925 3 9.92623 11.6924 7.31188 0 0 0
926 3 9.90973 13.0879 6.99195 0 0 0
927 3 9.93961 10.5955 7.52754 0 0 0
928 3 9.9897 13.7033 7.98435 0 0 0
933 3 9.97082 13.923 9.38126 0 0 0
949 5 9.99711 13.1049 8.09289 0 0 0
950 5 9.98004 14.6975 7.57015 0 0 0
959 5 9.96342 14.5215 9.27272 0 0 0
960 5 9.98048 12.9289 9.79547 0 0 0
16 1 -0.749029 -1.06462 0.849549 0 0 0
17 1 -1.09309 -2.46624 1.34664 0 0 0
18 1 -2.1396 -2.34116 2.50387 0 0 0
19 1 -2.48366 -3.74277 3.00096 0 0 0
20 1 -3.60011 -3.62571 4.08717 0 0 0
21 1 -3.94417 -5.02732 4.58426 0 0 0
22 1 -5.06062 -4.91026 5.67046 0 0 0
23 1 -5.40468 -6.31188 6.16756 0 0 0
24 1 -6.53633 -6.14496 7.12229 0 0 0
25 1 -6.93513 -7.60445 7.67983 0 0 0
26 5 -8.05835 -7.36692 9.0407 0 0 0
42 6 -1.11664 -0.415379 1.13824 0 0 0
43 6 -0.878092 -0.682126 0.933449 0 0 0
44 6 -0.725471 -3.11548 1.05796 0 0 0
45 6 -0.964024 -2.84873 1.26275 0 0 0
46 6 -2.57716 -1.69993 2.72154 0 0 0
47 6 -2.3386 -1.96668 2.51675 0 0 0
48 6 -2.18598 -4.40003 2.64125 0 0 0
49 6 -2.42453 -4.13329 2.84604 0 0 0
50 6 -4.03767 -2.98449 4.30483 0 0 0
51 6 -3.79911 -3.25123 4.10004 0 0 0
52 6 -3.64649 -5.68459 4.22455 0 0 0
53 6 -3.88504 -5.41784 4.42934 0 0 0
54 6 -5.44343 -4.21117 5.82768 0 0 0
55 6 -5.20488 -4.47791 5.6229 0 0 0
56 6 -5.107 -6.96914 5.80785 0 0 0
57 6 -5.34555 -6.70239 6.01264 0 0 0
58 6 -6.90394 -5.49572 7.41098 0 0 0
59 6 -6.66539 -5.76247 7.20619 0 0 0
60 6 -6.56751 -8.25369 7.39115 0 0 0
61 6 -6.80607 -7.98695 7.59593 0 0 0
62 7 -8.50274 -8.67684 9.20384 0 0 0
130 7 17.8361 -7.71988 -10.5496 0 0 0
161 1 -5.05121 -0.288692 5.79065 0 0 0
162 5 -6.55612 -1.22898 5.64534 0 0 0
196 6 -4.4744 -0.276545 6.34485 0 0 0
197 6 -4.80337 -0.362748 6.11172 0 0 0
198 7 -6.25697 -2.27768 6.51179 0 0 0
207 1 10.7961 19.5765 1.89249 0 0 0
208 2 10.1491 19.6509 0.508336 0 0 0
216 3 10.1871 13.6498 0.232862 0 0 0
217 3 10.3304 12.517 0.971889 0 0 0
218 3 10.1332 11.2448 0.345415 0 0 0
234 3 10.3627 17.2403 0.452234 0 0 0
240 6 10.8741 19.1598 2.2671 0 0 0
241 6 10.8419 18.9644 2.16325 0 0 0
244 6 10.417 14.528 0.627776 0 0 0
245 6 10.6689 12.5705 1.92192 0 0 0
269 6 10.3711 15.1401 0.357012 0 0 0
270 6 10.7012 17.2938 1.40227 0 0 0
298 5 10.3217 -9.55632 8.24471 0 0 0
356 1 10.8387 -0.0688798 8.69308 0 0 0
357 1 12.0753 -0.334523 7.8386 0 0 0
358 1 11.7009 -0.105569 6.33613 0 0 0
359 1 12.9376 -0.371212 5.48165 0 0 0
360 1 12.5929 -0.0477592 3.99283 0 0 0
361 1 13.8296 -0.313402 3.13835 0 0 0
363 1 14.7215 -0.255593 0.795054 0 0 0
384 6 12.7593 -0.596208 8.16075 0 0 0
385 6 12.4598 -0.46567 7.90916 0 0 0
388 6 13.6512 -0.538398 5.81745 0 0 0
389 6 13.3518 -0.40786 5.56586 0 0 0
392 6 14.5432 -0.480589 3.47415 0 0 0
393 6 14.2438 -0.350051 3.22257 0 0 0
396 6 15.4352 -0.422779 1.13086 0 0 0
397 6 15.1357 -0.292241 0.879268 0 0 0
434 5 -1.75501 -0.0121243 0.119718 0 0 0
468 6 -2.30177 -0.173601 2.44458 0 0 0
469 6 -2.13426 -0.0370915 2.09343 0 0 0
470 7 -2.01328 -1.37963 0.0629251 0 0 0
485 3 10.1645 14.6315 7.74942 0 0 0
500 1 10.1756 -1.44557 9.57662 0 0 0
502 5 10.0186 -4.15355 9.21296 0 0 0
503 3 10.0021 11.0462 8.99834 0 0 0
515 6 10.0418 17.0154 6.71422 0 0 0
534 6 10.1847 -1.45686 8.77675 0 0 0
535 6 10.1787 -1.35123 9.17526 0 0 0
539 6 10.1209 10.0422 8.6138 0 0 0
540 6 10.1096 12.0207 7.08551 0 0 0
545 1 -3.38526 -1.99701 4.23446 0 0 0
546 2 -2.98848 -0.797035 3.42662 0 0 0
560 3 -0.377204 -3.35348 0.862281 0 0 0
562 3 -2.65964 -0.38138 2.63346 0 0 0
563 3 -1.15242 -4.30276 1.73287 0 0 0
564 4 -3.37095 -1.06534 2.98876 0 0 0
590 5 -0.696479 -2.45748 0.934699 0 0 0
591 5 -0.420767 -2.94441 0.718182 0 0 0
593 5 -2.14538 -1.13506 2.21215 0 0 0
595 5 -1.29468 -4.64671 1.77101 0 0 0
596 5 -1.01897 -5.13365 1.55449 0 0 0
597 5 -1.90964 -3.86975 2.28885 0 0 0
598 6 -4.32798 -2.4663 4.0894 0 0 0
605 3 12.2159 -0.126541 0.590867 0 0 0
627 5 13.0164 -0.29265 0.858478 0 0 0
628 5 11.4415 -0.291852 0.151559 0 0 0
638 5 13.5044 -0.685175 0.350783 0 0 0
714 3 10.4826 10.0333 2.29158 0 0 0
716 3 10.6472 11.6277 2.32207 0 0 0
720 3 10.4116 12.2741 1.27491 0 0 0
721 4 10.2176 14.5086 0.597124 0 0 0
723 4 10.3779 13.7752 1.34974 0 0 0
741 5 10.8734 11.8885 3.20572 0 0 0
742 5 10.6124 11.9358 2.13817 0 0 0
749 5 10.1533 11.8179 0.287414 0 0 0
750 5 10.4464 11.966 1.45881 0 0 0
751 5 10.4582 15.6004 0.586764 0 0 0
754 5 10.7354 14.2421 1.9013 0 0 0
827 3 13.7091 -1.20521 9.682 0 0 0
830 3 13.0234 -0.815122 8.47468 0 0 0
833 3 13.7466 -0.8524 7.1573 0 0 0
855 5 14.1653 -1.21006 9.45441 0 0 0
856 5 14.6783 -1.40633 9.69603 0 0 0
860 5 12.1561 -0.425315 8.39744 0 0 0
861 5 12.6691 -0.621578 8.63906 0 0 0
865 5 14.0749 -0.824236 6.97995 0 0 0
866 5 14.5878 -1.0205 7.22157 0 0 0
867 5 13.2195 -0.465028 6.35597 0 0 0
943 5 10.0159 11.7066 8.21285 0 0 0
944 5 10.0397 11.3826 6.51741 0 0 0
945 5 10.0035 13.6864 6.78455 0 0 0
946 5 10.0226 12.9753 5.99467 0 0 0
947 5 10.051 10.5828 6.52883 0 0 0
948 5 10.0262 10.9081 8.32425 0 0 0
1 1 6.80767 6.14577 -7.40615 0 0 0
2 1 6.97588 4.76678 -7.41607 0 0 0
3 1 6.02566 4.28116 -6.4255 0 0 0
4 2 5.54619 5.52255 -5.67114 0 0 0
5 3 4.44968 5.20977 -4.97843 0 0 0
6 3 3.79756 6.20692 -4.44887 0 0 0
7 3 2.91087 5.9182 -3.5431 0 0 0
8 3 2.52965 4.73677 -3.03428 0 0 0
9 3 1.40239 4.45529 -2.17402 0 0 0
10 4 1.14591 5.41138 -1.32543 0 0 0
11 3 1.2989 3.04644 -1.63141 0 0 0
12 3 2.05172 2.02601 -2.2575 0 0 0
13 3 1.81715 0.740148 -1.8813 0 0 0
14 3 0.829763 0.474711 -0.878997 0 0 0
27 3 0.122897 1.41398 -0.288987 0 0 0
28 3 0.357468 2.69985 -0.665193 0 0 0
29 3 3.18177 3.73962 -3.56384 0 0 0
30 3 4.06847 4.02834 -4.46961 0 0 0
31 1 5.70001 6.40186 -6.34431 0 0 0
32 6 7.11855 6.21495 -7.72011 0 0 0
33 6 7.10777 6.85223 -7.78145 0 0 0
34 6 7.38746 4.81269 -7.82655 0 0 0
35 6 7.4442 4.09426 -7.80129 0 0 0
36 6 5.99049 3.72504 -6.32806 0 0 0
37 6 5.83505 3.69044 -6.17109 0 0 0
38 6 3.99056 7.12554 -4.88347 0 0 0
39 6 2.32667 6.66386 -3.19281 0 0 0
40 6 2.65829 2.21424 -3.01688 0 0 0
65 6 2.8489 2.80495 -3.27129 0 0 0
66 6 4.51279 3.26664 -4.96194 0 0 0
67 6 5.48103 6.17036 -6.10253 0 0 0
68 6 5.45947 7.44491 -6.22523 0 0 0
169 6 5.46828 20.0688 -5.17124 0 0 0
222 1 9.7413 5.96876 -0.101954 0 0 0
224 1 9.58834 3.48104 -0.381 0 0 0
226 1 9.43539 0.99332 -0.660047 0 0 0
246 6 9.80154 8.48762 -0.623178 0 0 0
247 6 9.90064 8.57026 -0.231579 0 0 0
250 6 9.64858 5.99991 -0.902225 0 0 0
251 6 9.74769 6.08254 -0.510625 0 0 0
254 6 9.49563 3.51219 -1.18127 0 0 0
255 6 9.59473 3.59482 -0.789672 0 0 0
258 6 9.34689 1.12432 -1.45692 0 0 0
259 6 9.446 1.20696 -1.06532 0 0 0
345 3 6.07396 0.157831 17.5025 0 0 0
346 3 5.00512 0.582764 16.8885 0 0 0
347 3 5.08789 0.742664 15.601 0 0 0
348 3 6.11104 0.542747 14.7565 0 0 0
349 3 6.2103 0.924049 13.3656 0 0 0
350 4 5.0783 0.84378 12.7236 0 0 0
351 3 7.43046 0.437003 12.6146 0 0 0
367 3 8.70736 0.331564 10.5631 0 0 0
368 3 7.55574 0.596598 11.2366 0 0 0
369 3 7.17988 0.117813 15.3705 0 0 0
371 1 5.22406 0.131819 19.534 0 0 0
378 6 4.22474 0.843556 17.5154 0 0 0
379 6 4.30525 1.16396 15.1215 0 0 0
404 6 6.68761 1.05061 10.7168 0 0 0
405 6 8.01972 0.0460181 14.7709 0 0 0
407 6 5.39413 0.130601 19.172 0 0 0
408 6 4.19909 0.460143 19.4933 0 0 0
477 1 9.82905 21.7695 10.6454 0 0 0
478 1 9.82527 21.0865 11.8552 0 0 0
491 5 9.8917 9.8789 11.4139 0 0 0
494 1 9.96329 5.95995 10.0698 0 0 0
495 1 9.97264 4.67149 10.8882 0 0 0
508 6 9.82106 22.1722 10.8396 0 0 0
509 6 9.82109 22.5651 10.334 0 0 0
510 6 9.81471 21.5907 12.148 0 0 0
511 6 9.81354 21.1992 12.7536 0 0 0
548 3 0.408456 4.22332 -0.76705 0 0 0
550 3 1.1265 3.751 -1.5616 0 0 0
555 3 1.87932 2.73057 -2.1877 0 0 0
558 3 1.83055 0.343779 -1.87013 0 0 0
559 4 2.73725 2.27428 -2.84021 0 0 0
561 4 2.72165 1.21992 -2.70578 0 0 0
565 5 0.123522 2.43119 -0.424876 0 0 0
567 5 0.575079 4.72486 -1.12857 0 0 0
571 5 0.84399 3.32259 -1.23502 0 0 0
572 5 1.49014 4.65436 -2.02171 0 0 0
581 5 2.16183 3.15897 -2.51428 0 0 0
582 5 1.51569 1.8272 -1.72759 0 0 0
587 5 1.09731 0.86596 -1.20704 0 0 0
588 5 1.75822 0.00784454 -1.76097 0 0 0
589 5 3.19955 2.89486 -3.64715 0 0 0
592 5 3.13121 1.00632 -3.36657 0 0 0
608 3 7.16408 0.645293 -0.0362651 0 0 0
633 5 6.25896 0.716538 -0.311399 0 0 0
707 1 8.95245 4.51842 -1.49454 0 0 0
708 2 9.08704 5.93131 -1.97996 0 0 0
713 3 9.3772 9.32835 -2.10627 0 0 0
718 3 9.42783 8.22667 -2.16751 0 0 0
724 3 9.43991 6.81581 -1.92393 0 0 0
726 4 9.71259 5.80311 -1.93247 0 0 0
735 5 9.27183 9.05994 -2.91674 0 0 0
736 5 9.68775 9.28631 -1.25669 0 0 0
745 5 9.63026 8.49179 -1.38092 0 0 0
746 5 9.21434 8.26542 -3.04097 0 0 0
755 5 9.68134 6.87262 -0.950032 0 0 0
756 5 9.26542 6.64624 -2.61008 0 0 0
760 6 9.69934 3.79313 -1.70927 0 0 0
817 3 6.96359 0.801095 10.4839 0 0 0
818 3 6.11187 0.903489 11.6303 0 0 0
820 3 6.74138 0.672708 12.5897 0 0 0
825 3 7.8532 0.215369 13.3345 0 0 0
835 5 7.76272 0.601197 10.86 0 0 0
837 5 5.71551 1.06524 12.1065 0 0 0
838 5 5.32923 1.32479 11.1507 0 0 0
840 5 8.18836 0.566051 10.1762 0 0 0
841 5 7.08198 0.638171 12.0869 0 0 0
842 5 5.97425 0.806595 13.3337 0 0 0
851 5 7.5126 0.249906 13.8373 0 0 0
852 5 8.62033 0.0814814 12.5905 0 0 0
931 3 9.8874 9.67748 13.3408 0 0 0
935 3 9.90762 8.17919 13.4622 0 0 0
938 3 9.93276 7.36243 12.2738 0 0 0
941 3 9.95299 5.86415 12.3952 0 0 0
953 5 9.9937 9.86759 12.5393 0 0 0
956 5 9.9854 9.97604 13.1377 0 0 0
64 6 -0.272688 3.52666 -0.278823 0 0 0
199 6 -0.915942 9.96393 -1.04772 0 0 0
272 6 10.1673 21.0992 -0.874404 0 0 0
273 1 -8.66331 7.88087 11.3434 0 0 0
274 1 -8.74115 6.74006 12.1324 0 0 0
275 1 -7.56528 5.96538 11.762 0 0 0
276 2 -7.01017 6.63509 10.5037 0 0 0
277 3 -5.76932 6.19324 10.2914 0 0 0
284 3 -2.62773 2.53 10.3237 0 0 0
285 3 -2.23373 1.32161 10.808 0 0 0
286 3 -1.03315 0.725285 10.305 0 0 0
301 3 -4.12719 4.44235 10.2032 0 0 0
302 3 -5.20981 5.02178 10.63 0 0 0
303 1 -7.36575 7.69507 10.5057 0 0 0
304 6 -9.04003 8.05608 11.5089 0 0 0
305 6 -9.08387 8.60803 11.1873 0 0 0
306 6 -9.23583 6.93215 12.374 0 0 0
307 6 -9.23955 6.32639 12.7652 0 0 0
308 6 -7.47388 5.46725 12.014 0 0 0
309 6 -7.28552 5.37965 11.9313 0 0 0
312 6 -3.39884 2.99698 10.7327 0 0 0
313 6 -2.72695 0.899988 11.582 0 0 0
337 6 -3.67859 3.58271 10.5634 0 0 0
338 6 -5.70303 4.60016 11.404 0 0 0
339 6 -7.08414 7.41222 10.4794 0 0 0
364 1 14.3641 0.162662 -0.589605 0 0 0
366 5 15.1106 0.0962875 -3.22176 0 0 0
398 6 13.6801 0.424347 -0.911759 0 0 0
399 6 13.9796 0.293809 -0.660172 0 0 0
402 7 16.3514 0.114748 -3.85428 0 0 0
423 5 -0.745464 9.18503 10.8976 0 0 0
492 1 10.0254 8.4637 10.2352 0 0 0
493 1 10.0347 7.17525 11.0537 0 0 0
497 1 10.0105 2.16918 10.7239 0 0 0
520 6 10.0256 7.18653 11.8535 0 0 0
521 6 10.0316 7.08091 11.455 0 0 0
524 6 10.0635 4.68422 11.6892 0 0 0
525 6 10.0695 4.5786 11.2907 0 0 0
528 6 10.1014 2.18191 11.5249 0 0 0
529 6 10.1074 2.07628 11.1264 0 0 0
547 3 -0.220107 3.16961 -0.0290787 0 0 0
568 5 -0.175747 4.96898 -0.416766 0 0 0
659 3 -1.91601 9.39897 -1.11492 0 0 0
664 3 -2.30603 8.45774 -0.688352 0 0 0
681 5 -2.55834 9.08663 -1.59435 0 0 0
682 5 -1.21091 9.35283 -0.548604 0 0 0
691 5 -1.60753 8.71027 -0.266077 0 0 0
692 5 -2.95495 8.44407 -1.31183 0 0 0
702 5 -3.24346 7.16959 -0.261848 0 0 0
774 3 -2.21898 0.992192 11.0287 0 0 0
775 4 -3.44016 2.93254 10.5451 0 0 0
777 4 -3.32778 2.007 11.0558 0 0 0
796 5 -2.43577 0.295679 11.6352 0 0 0
798 5 -1.97563 2.16994 10.0939 0 0 0
803 5 -1.39141 1.17683 10.2999 0 0 0
804 5 -2.10288 0.672418 11.1481 0 0 0
805 5 -4.10911 3.80209 10.7605 0 0 0
808 5 -3.85965 2.12936 11.6492 0 0 0
876 3 -1.11382 8.89421 11.7384 0 0 0
877 3 -1.64046 7.99011 12.1324 0 0 0
881 3 -1.90161 6.81157 11.2364 0 0 0
899 5 -1.16001 8.52367 11.7147 0 0 0
900 5 -0.614328 9.15833 10.8548 0 0 0
901 5 -1.94979 7.72177 13.1336 0 0 0
902 5 -1.41848 8.28138 12.2092 0 0 0
903 5 -1.162 9.80441 13.6356 0 0 0
909 5 -2.00765 6.31309 11.2199 0 0 0
910 5 -2.2805 5.99576 11.6498 0 0 0
954 5 10.0074 9.85067 11.3394 0 0 0
963 5 10.0099 7.78495 13.769 0 0 0
964 5 10.003 7.79341 14.3689 0 0 0
968 5 10.0388 7.65112 11.3708 0 0 0
969 5 10.0319 7.65958 11.9707 0 0 0
973 5 10.055 5.56847 12.6006 0 0 0
974 5 10.0481 5.57693 13.2005 0 0 0
975 5 10.0704 5.35299 11.5036 0 0 0
15 5 0.638755 -1.22022 -0.358692 0 0 0
41 6 2.26148 -0.0215519 -2.37363 0 0 0
83 5 8.90708 -0.11354 -0.904572 0 0 0
112 6 9.91583 -1.58931 -2.96964 0 0 0
137 1 5.36008 19.4323 -4.61161 0 0 0
138 1 5.94135 18.8896 -3.47248 0 0 0
139 1 5.08505 17.7617 -3.13393 0 0 0
140 2 3.83499 17.9184 -4.00158 0 0 0
141 3 3.15625 16.7698 -3.99173 0 0 0
142 3 2.17837 16.6699 -4.84833 0 0 0
143 3 1.33109 15.7008 -4.667 0 0 0
144 3 1.27694 14.7484 -3.72365 0 0 0
145 3 0.429354 13.5779 -3.68194 0 0 0
147 3 0.47915 12.7497 -2.41644 0 0 0
148 3 1.5697 12.9312 -1.53454 0 0 0
149 3 1.70031 12.0619 -0.496613 0 0 0
150 3 0.740375 11.0111 -0.340586 0 0 0
165 3 2.25482 14.8482 -2.86705 0 0 0
166 3 3.1021 15.8174 -3.04837 0 0 0
167 1 4.12076 18.5342 -4.88991 0 0 0
168 6 5.66654 19.7559 -4.64896 0 0 0
170 6 6.36048 19.2948 -3.48453 0 0 0
171 6 6.63083 18.9834 -2.89298 0 0 0
172 6 5.2112 17.4473 -2.68093 0 0 0
173 6 5.05798 17.2855 -2.66225 0 0 0
174 6 2.23911 17.3237 -5.64764 0 0 0
175 6 0.625689 15.5457 -5.37294 0 0 0
176 6 2.27936 13.5986 -1.71038 0 0 0
201 6 2.30644 14.0748 -2.18205 0 0 0
202 6 3.91986 15.8529 -2.45676 0 0 0
203 6 3.9585 18.2137 -4.71401 0 0 0
204 6 3.56199 18.8395 -5.75856 0 0 0
210 3 9.95844 18.4204 -1.35435 0 0 0
211 3 9.78919 17.2437 -1.88037 0 0 0
212 3 9.88087 16.0197 -1.33884 0 0 0
213 3 9.87778 14.7408 -2.01305 0 0 0
214 4 9.10364 14.7091 -3.06172 0 0 0
215 3 9.84652 13.5104 -1.13264 0 0 0
228 1 9.38371 -1.39783 -0.959563 0 0 0
229 1 9.51439 -2.83022 -0.23073 0 0 0
230 5 8.98076 -4.07007 -1.39177 0 0 0
231 3 9.81639 11.101 -0.923036 0 0 0
232 3 9.67304 12.2338 -1.66206 0 0 0
242 6 9.97487 19.3373 -1.83289 0 0 0
243 6 9.64481 17.1836 -2.87814 0 0 0
262 6 9.19394 -1.36339 -1.73597 0 0 0
263 6 9.29304 -1.28076 -1.34437 0 0 0
266 7 9.41527 -5.21276 -0.724347 0 0 0
267 6 9.77635 10.1164 -1.36908 0 0 0
268 6 9.50495 12.1781 -2.75688 0 0 0
288 1 0.985705 -1.20081 10.0513 0 0 0
289 1 1.52051 -2.55062 10.5225 0 0 0
291 1 3.32296 -4.25662 10.1474 0 0 0
316 6 1.14006 -2.98118 11.0792 0 0 0
317 6 1.40069 -2.83661 10.7943 0 0 0
320 6 2.99526 -4.64132 10.7756 0 0 0
321 6 3.25589 -4.49675 10.4907 0 0 0
324 6 4.85046 -6.30146 10.472 0 0 0
325 6 5.11109 -6.1569 10.1871 0 0 0
328 6 6.70566 -7.96161 10.1685 0 0 0
343 1 7.27353 -0.492728 19.394 0 0 0
344 2 5.90201 -0.285563 18.749 0 0 0
352 3 8.54227 -0.0203367 13.3593 0 0 0
353 3 9.69388 -0.285371 12.6859 0 0 0
354 3 9.73368 -0.0930652 11.2676 0 0 0
370 3 7.09711 -0.0420863 16.658 0 0 0
376 6 7.78556 -0.624788 19.193 0 0 0
377 6 7.78511 -0.592686 18.9718 0 0 0
380 6 8.53129 -0.0539406 14.3487 0 0 0
406 6 7.93922 -0.27439 17.1648 0 0 0
409 1 1.32634 18.3929 18.171 0 0 0
410 1 0.680006 17.233 18.5793 0 0 0
411 1 0.660599 16.3939 17.3896 0 0 0
412 2 1.07902 17.3061 16.2351 0 0 0
413 3 1.39753 16.5511 15.1822 0 0 0
414 3 1.97431 17.1636 14.1862 0 0 0
415 3 2.02914 16.5276 13.0537 0 0 0
416 3 1.58375 15.3097 12.7096 0 0 0
417 3 1.84546 14.5722 11.494 0 0 0
418 4 1.93729 15.33 10.437 0 0 0
419 3 1.08786 13.2749 11.3118 0 0 0
420 3 0.479982 12.6846 12.444 0 0 0
422 3 0.0439446 10.7778 11.0391 0 0 0
436 3 1.1283 12.5638 10.1148 0 0 0
437 3 1.00697 14.6972 13.7056 0 0 0
438 3 0.952143 15.3333 14.8381 0 0 0
439 1 1.66839 18.1492 16.6732 0 0 0
440 6 1.29291 18.5873 18.5724 0 0 0
441 6 1.57779 19.1519 18.4721 0 0 0
442 6 0.615479 17.4495 19.1169 0 0 0
443 6 0.285121 16.832 19.2888 0 0 0
444 6 0.421189 15.8822 17.4181 0 0 0
445 6 0.437905 15.785 17.2175 0 0 0
446 6 2.41898 18.0638 14.435 0 0 0
447 6 2.55739 16.9418 12.2992 0 0 0
448 6 0.51539 13.1088 13.3378 0 0 0
473 6 0.738084 13.7177 13.5099 0 0 0
474 6 0.599678 14.8398 15.6457 0 0 0
475 6 1.61087 17.849 16.4151 0 0 0
476 6 2.18064 18.9783 16.2146 0 0 0
479 1 9.8498 19.6812 11.4752 0 0 0
488 3 9.95245 13.6612 10.0611 0 0 0
489 3 9.95895 12.5727 10.8766 0 0 0
490 3 9.98434 11.2645 10.2953 0 0 0
506 3 9.90002 17.2619 10.1097 0 0 0
512 6 9.85091 19.2869 11.8808 0 0 0
513 6 9.85491 19.0855 11.7837 0 0 0
542 6 9.98712 17.3774 11.1092 0 0 0
552 3 1.20159 -1.81415 -0.866265 0 0 0
553 3 1.38739 -2.91508 -0.924902 0 0 0
554 3 2.00756 -0.896178 -1.90441 0 0 0
557 3 0.612174 -3.86435 -0.0543128 0 0 0
575 5 1.05932 -2.15811 -0.828125 0 0 0
576 5 0.507895 -1.18424 -0.395092 0 0 0
577 5 1.99594 -3.50315 -1.59857 0 0 0
578 5 1.38978 -2.58716 -1.10509 0 0 0
579 5 2.58536 -1.45295 -2.41052 0 0 0
580 5 2.07988 -0.560243 -2.01357 0 0 0
586 5 0.736827 -4.83427 -0.208331 0 0 0
606 3 7.99358 -0.0713125 -1.20605 0 0 0
607 3 7.40905 -0.410204 -2.09683 0 0 0
611 3 8.0834 -1.17151 -3.20393 0 0 0
614 3 9.49237 -1.46717 -3.11792 0 0 0
629 5 7.95686 -0.32548 -1.47817 0 0 0
630 5 8.96152 -0.219809 -0.830494 0 0 0
631 5 6.34879 -0.383655 -2.30927 0 0 0
632 5 7.40399 -0.32815 -1.7318 0 0 0
639 5 8.01349 -1.48465 -3.60023 0 0 0
640 5 7.51116 -1.53748 -3.92407 0 0 0