ITEM: TIMESTEP
0
ITEM: NUMBER OF ATOMS
122
ITEM: BOX BOUNDS pp pp pp
0.0000000000000000e+00 2.0000000000000000e+01
0.0000000000000000e+00 2.0000000000000000e+01
0.0000000000000000e+00 2.0000000000000000e+01
ITEM: ATOMS id type xu yu zu vx vy vz
63 6 -0.678292 1.15184 0.388785 0 0 0
76 3 11.2016 8.18585 9.13373 0 0 0
77 3 11.3874 7.08492 9.0751 0 0 0
78 3 12.0076 9.10382 8.09559 0 0 0
81 3 10.6122 6.13565 9.94569 0 0 0
99 5 11.0593 7.84189 9.17187 0 0 0
100 5 10.5079 8.81576 9.60491 0 0 0
101 5 11.9959 6.49685 8.40143 0 0 0
102 5 11.3898 7.41284 8.89491 0 0 0
103 5 12.5854 8.54705 7.58948 0 0 0
104 5 12.0799 9.43976 7.98643 0 0 0
110 5 10.7368 5.16573 9.79167 0 0 0
71 3 9.77989 13.1696 9.97092 0 0 0
92 5 9.82425 14.969 9.58323 0 0 0
16 1 -0.749029 -1.06462 0.849549 0 0 0
17 1 -1.09309 -2.46624 1.34664 0 0 0
18 1 -2.1396 -2.34116 2.50387 0 0 0
19 1 -2.48366 -3.74277 3.00096 0 0 0
20 1 -3.60011 -3.62571 4.08717 0 0 0
21 1 -3.94417 -5.02732 4.58426 0 0 0
22 1 -5.06062 -4.91026 5.67046 0 0 0
23 1 -5.40468 -6.31188 6.16756 0 0 0
24 1 -6.53633 -6.14496 7.12229 0 0 0
25 1 -6.93513 -7.60445 7.67983 0 0 0
26 5 -8.05835 -7.36692 9.0407 0 0 0
42 6 -1.11664 -0.415379 1.13824 0 0 0
43 6 -0.878092 -0.682126 0.933449 0 0 0
44 6 -0.725471 -3.11548 1.05796 0 0 0
45 6 -0.964024 -2.84873 1.26275 0 0 0
46 6 -2.57716 -1.69993 2.72154 0 0 0
47 6 -2.3386 -1.96668 2.51675 0 0 0
48 6 -2.18598 -4.40003 2.64125 0 0 0
49 6 -2.42453 -4.13329 2.84604 0 0 0
50 6 -4.03767 -2.98449 4.30483 0 0 0
51 6 -3.79911 -3.25123 4.10004 0 0 0
52 6 -3.64649 -5.68459 4.22455 0 0 0
53 6 -3.88504 -5.41784 4.42934 0 0 0
54 6 -5.44343 -4.21117 5.82768 0 0 0
55 6 -5.20488 -4.47791 5.6229 0 0 0
56 6 -5.107 -6.96914 5.80785 0 0 0
57 6 -5.34555 -6.70239 6.01264 0 0 0
58 6 -6.90394 -5.49572 7.41098 0 0 0
59 6 -6.66539 -5.76247 7.20619 0 0 0
60 6 -6.56751 -8.25369 7.39115 0 0 0
61 6 -6.80607 -7.98695 7.59593 0 0 0
62 7 -8.50274 -8.67684 9.20384 0 0 0
72 3 10.4085 14.2233 9.23295 0 0 0
74 3 11.1265 13.751 8.4384 0 0 0
79 3 11.8793 12.7306 7.8123 0 0 0
82 3 11.8305 10.3438 8.12987 0 0 0
83 4 12.7372 12.2743 7.15979 0 0 0
85 4 12.7217 11.2199 7.29422 0 0 0
89 5 10.1235 12.4312 9.57512 0 0 0
91 5 10.5751 14.7249 8.87143 0 0 0
95 5 10.844 13.3226 8.76498 0 0 0
96 5 11.4901 14.6544 7.97829 0 0 0
105 5 12.1618 13.159 7.48572 0 0 0
106 5 11.5157 11.8272 8.27241 0 0 0
111 5 11.0973 10.866 8.79296 0 0 0
112 5 11.7582 10.0078 8.23903 0 0 0
113 5 13.1996 12.8949 6.35285 0 0 0
116 5 13.1312 11.0063 6.63343 0 0 0
1 1 6.80767 6.14577 -7.40615 0 0 0
2 1 6.97588 4.76678 -7.41607 0 0 0
3 1 6.02566 4.28116 -6.4255 0 0 0
4 2 5.54619 5.52255 -5.67114 0 0 0
5 3 4.44968 5.20977 -4.97843 0 0 0
6 3 3.79756 6.20692 -4.44887 0 0 0
7 3 2.91087 5.9182 -3.5431 0 0 0
8 3 2.52965 4.73677 -3.03428 0 0 0
9 3 1.40239 4.45529 -2.17402 0 0 0
10 4 1.14591 5.41138 -1.32543 0 0 0
11 3 1.2989 3.04644 -1.63141 0 0 0
12 3 2.05172 2.02601 -2.2575 0 0 0
13 3 1.81715 0.740148 -1.8813 0 0 0
14 3 0.829763 0.474711 -0.878997 0 0 0
27 3 0.122897 1.41398 -0.288987 0 0 0
28 3 0.357468 2.69985 -0.665193 0 0 0
29 3 3.18177 3.73962 -3.56384 0 0 0
30 3 4.06847 4.02834 -4.46961 0 0 0
31 1 5.70001 6.40186 -6.34431 0 0 0
32 6 7.11855 6.21495 -7.72011 0 0 0
33 6 7.10777 6.85223 -7.78145 0 0 0
34 6 7.38746 4.81269 -7.82655 0 0 0
35 6 7.4442 4.09426 -7.80129 0 0 0
36 6 5.99049 3.72504 -6.32806 0 0 0
37 6 5.83505 3.69044 -6.17109 0 0 0
38 6 3.99056 7.12554 -4.88347 0 0 0
39 6 2.32667 6.66386 -3.19281 0 0 0
40 6 2.65829 2.21424 -3.01688 0 0 0
65 6 2.8489 2.80495 -3.27129 0 0 0
66 6 4.51279 3.26664 -4.96194 0 0 0
67 6 5.48103 6.17036 -6.10253 0 0 0
68 6 5.45947 7.44491 -6.22523 0 0 0
69 1 6.61474 8.00299 14.2345 0 0 0
70 2 7.01152 9.20297 13.4266 0 0 0
84 3 9.6228 6.64652 10.8623 0 0 0
86 3 7.34036 9.61862 12.6335 0 0 0
87 3 8.84758 5.69724 11.7329 0 0 0
88 4 6.62905 8.93466 12.9888 0 0 0
114 5 9.30352 7.54252 10.9347 0 0 0
115 5 9.57923 7.05559 10.7182 0 0 0
117 5 7.85462 8.86494 12.2122 0 0 0
119 5 8.70532 5.35329 11.771 0 0 0
120 5 8.98103 4.86635 11.5545 0 0 0
121 5 8.09036 6.13025 12.2888 0 0 0
122 6 5.67202 7.5337 14.0894 0 0 0
64 6 -0.272688 3.52666 -0.278823 0 0 0
109 5 10.4611 5.65266 10.0082 0 0 0
15 5 0.638755 -1.22022 -0.358692 0 0 0
41 6 2.26148 -0.0215519 -2.37363 0 0 0
73 3 9.26961 12.3707 10.5636 0 0 0
75 3 8.64105 11.317 11.3016 0 0 0
80 3 7.96892 10.6723 11.8955 0 0 0
90 5 9.1781 13.6372 10.3699 0 0 0
93 5 8.74015 13.1742 10.8535 0 0 0
94 5 9.73152 11.887 10.0226 0 0 0
97 5 8.03926 11.7846 11.7006 0 0 0
98 5 8.98468 10.5786 10.9058 0 0 0
107 5 8.50077 10.1967 11.4255 0 0 0
108 5 7.55535 11.4027 12.2203 0 0 0
118 5 6.9092 10.071 13.007 0 0 0
ITEM: TIMESTEP
25
ITEM: NUMBER OF ATOMS
122
ITEM: BOX BOUNDS pp pp pp
0.0000000000000000e+00 2.0000000000000000e+01
0.0000000000000000e+00 2.0000000000000000e+01
0.0000000000000000e+00 2.0000000000000000e+01
ITEM: ATOMS id type xu yu zu vx vy vz
63 6 -0.620307 1.40541 0.307593 0 0 0
76 3 11.545 8.25816 9.34016 0 0 0
77 3 11.7839 6.89208 9.1905 0 0 0
78 3 11.8847 8.9098 8.07343 0 0 0
81 3 10.7252 6.06068 9.76559 0 0 0
99 5 10.6297 7.84671 9.14294 0 0 0
100 5 11.2203 8.63105 10.1907 0 0 0
101 5 12.0643 6.20808 8.43395 0 0 0
102 5 11.0916 7.08589 8.30427 0 0 0
103 5 12.9477 8.78823 7.60189 0 0 0
104 5 12.4726 9.63689 8.14858 0 0 0
110 5 11.3819 5.20917 9.38623 0 0 0
71 3 9.59445 13.2227 9.63128 0 0 0
92 5 10.0251 15.287 9.46469 0 0 0
16 1 -0.633095 -1.2569 0.785937 0 0 0
17 1 -1.26075 -2.39585 1.35284 0 0 0
18 1 -1.93913 -2.36524 2.65521 0 0 0
19 1 -2.40281 -3.6724 3.18559 0 0 0
20 1 -3.42936 -3.65472 4.20389 0 0 0
21 1 -3.7769 -4.95701 4.77415 0 0 0
22 1 -4.94176 -4.98987 5.54377 0 0 0
23 1 -4.86568 -6.12521 6.42166 0 0 0
24 1 -5.72019 -5.94984 7.59987 0 0 0
25 1 -5.71404 -7.34202 8.43223 0 0 0
26 5 -6.63116 -7.52669 9.99946 0 0 0
42 6 -1.27278 -0.546899 1.31916 0 0 0
43 6 -0.785898 -0.332687 0.819242 0 0 0
44 6 -0.551094 -3.03344 0.888113 0 0 0
45 6 -0.981908 -3.32357 1.393 0 0 0
46 6 -2.70942 -1.74508 3.02746 0 0 0
47 6 -2.40653 -1.60877 2.1313 0 0 0
48 6 -1.92679 -4.34036 2.52496 0 0 0
49 6 -2.85376 -4.53929 2.86849 0 0 0
50 6 -4.14034 -2.96831 4.59056 0 0 0
51 6 -3.812 -2.92012 3.61322 0 0 0
52 6 -3.38433 -5.64249 4.08171 0 0 0
53 6 -4.30414 -5.80363 4.50497 0 0 0
54 6 -5.59545 -4.28985 6.12306 0 0 0
55 6 -5.21461 -4.12676 5.22298 0 0 0
56 6 -4.85766 -6.98501 5.67001 0 0 0
57 6 -5.53218 -6.75418 6.24113 0 0 0
58 6 -6.55738 -5.23863 7.61514 0 0 0
59 6 -6.20826 -5.99974 6.67524 0 0 0
60 6 -5.81413 -8.22211 7.68375 0 0 0
61 6 -6.58581 -7.58499 8.51554 0 0 0
62 7 -7.60939 -8.3928 9.76941 0 0 0
72 3 10.5916 14.2822 9.48914 0 0 0
74 3 11.36 14.0411 8.34654 0 0 0
79 3 11.4735 12.9041 7.35657 0 0 0
82 3 11.563 10.2926 8.4293 0 0 0
83 4 12.2414 12.1982 6.70636 0 0 0
85 4 12.372 10.9852 7.17468 0 0 0
89 5 10.0111 12.4067 9.61919 0 0 0
91 5 10.3968 15.047 8.80331 0 0 0
95 5 10.5258 14.3401 7.76146 0 0 0
96 5 11.1837 14.9944 8.09478 0 0 0
105 5 11.42 13.103 6.35396 0 0 0
106 5 10.8246 12.7996 6.5756 0 0 0
111 5 10.6081 10.3837 8.05433 0 0 0
112 5 11.3919 10.3389 7.74539 0 0 0
113 5 12.3611 12.4209 5.67646 0 0 0
116 5 12.9786 11.0457 6.00281 0 0 0
1 1 6.58068 6.06652 -7.16388 0 0 0
2 1 6.62933 4.62951 -7.06039 0 0 0
3 1 5.52135 4.38509 -6.39571 0 0 0
4 2 5.41367 5.47253 -5.50747 0 0 0
5 3 4.38177 5.17368 -4.8264 0 0 0
6 3 3.75466 6.25893 -4.45266 0 0 0
7 3 2.83227 5.99652 -3.51793 0 0 0
8 3 2.42631 4.83816 -2.97316 0 0 0
9 3 1.52663 4.43698 -2.06115 0 0 0
10 4 1.11094 5.38863 -1.38854 0 0 0
11 3 1.32642 3.08592 -1.71025 0 0 0
12 3 1.9946 1.93165 -2.22293 0 0 0
13 3 1.83109 0.722148 -1.91602 0 0 0
14 3 0.896035 0.446644 -0.919006 0 0 0
27 3 0.147213 1.49395 -0.351894 0 0 0
28 3 0.368988 2.79608 -0.722557 0 0 0
29 3 3.07263 3.94619 -3.47726 0 0 0
30 3 3.90697 4.00773 -4.30918 0 0 0
31 1 5.18582 6.10712 -6.82822 0 0 0
32 6 7.02683 5.95554 -8.16385 0 0 0
33 6 6.39349 6.88584 -7.72095 0 0 0
34 6 6.0333 4.54976 -7.86637 0 0 0
35 6 7.17533 3.84765 -7.60582 0 0 0
36 6 6.14805 3.64021 -6.39557 0 0 0
37 6 5.6166 3.52023 -5.90036 0 0 0
38 6 3.94574 7.14993 -4.84209 0 0 0
39 6 2.38411 6.72977 -3.27427 0 0 0
40 6 2.71203 1.66962 -2.98658 0 0 0
65 6 2.8735 3.25373 -3.44027 0 0 0
66 6 3.92655 3.00722 -4.32733 0 0 0
67 6 5.7471 5.55093 -6.11099 0 0 0
68 6 4.93589 7.18816 -6.77481 0 0 0
69 1 6.75148 8.37884 14.1669 0 0 0
70 2 7.65157 8.67142 13.399 0 0 0
84 3 9.93802 6.41768 11.1162 0 0 0
86 3 7.18866 9.85007 12.8805 0 0 0
87 3 9.07826 5.7293 11.5434 0 0 0
88 4 6.56052 8.76222 12.879 0 0 0
114 5 9.16312 7.04276 11.4434 0 0 0
115 5 8.92214 6.67094 10.7179 0 0 0
117 5 7.51411 8.92959 13.0819 0 0 0
119 5 9.33959 5.25685 12.3208 0 0 0
120 5 9.30527 4.81077 11.7781 0 0 0
121 5 9.33541 6.4606 12.3539 0 0 0
122 6 6.25029 7.73799 14.5976 0 0 0
64 6 -0.240032 3.49349 -0.282411 0 0 0
109 5 10.6209 4.97149 9.43597 0 0 0
15 5 0.705496 -1.21614 -0.427975 0 0 0
41 6 2.42563 0.150032 -2.53236 0 0 0
73 3 9.27798 12.6079 10.9148 0 0 0
75 3 8.7688 11.2734 11.4402 0 0 0
80 3 7.58885 10.5601 11.6331 0 0 0
90 5 9.15109 13.9585 10.2133 0 0 0
93 5 8.57008 13.3893 10.8618 0 0 0
94 5 9.66483 12.2151 10.0909 0 0 0
97 5 7.81702 11.7671 11.9534 0 0 0
98 5 8.8618 10.253 10.8838 0 0 0
107 5 8.5195 9.94933 11.3399 0 0 0
108 5 7.44079 11.4032 12.344 0 0 0
118 5 6.37224 9.98195 13.6621 0 0 0
ITEM: TIMESTEP
50
ITEM: NUMBER OF ATOMS
122
ITEM: BOX BOUNDS pp pp pp
0.0000000000000000e+00 2.0000000000000000e+01
0.0000000000000000e+00 2.0000000000000000e+01
0.0000000000000000e+00 2.0000000000000000e+01
ITEM: ATOMS id type xu yu zu vx vy vz
63 6 -0.454232 1.53 0.146255 0 0 0
76 3 11.5246 8.20534 9.3141 0 0 0
77 3 11.4257 6.90949 8.40109 0 0 0
78 3 12.1388 9.28727 8.50028 0 0 0
81 3 10.7257 5.83927 9.45135 0 0 0
99 5 10.5359 8.16256 9.44576 0 0 0
100 5 11.9662 8.53508 10.2871 0 0 0
101 5 12.2954 6.1584 8.26077 0 0 0
102 5 11.0817 7.38203 7.27663 0 0 0
103 5 13.2021 8.97746 8.28163 0 0 0
104 5 13.2335 9.21807 8.93498 0 0 0
110 5 11.8522 5.57874 9.30946 0 0 0
71 3 10.0244 12.8415 9.43639 0 0 0
92 5 10.7448 15.0052 9.47504 0 0 0
16 1 -0.458859 -1.19204 0.998481 0 0 0
17 1 -1.32853 -2.50219 1.21306 0 0 0
18 1 -1.97668 -2.33884 2.66494 0 0 0
19 1 -2.51666 -3.73225 3.21902 0 0 0
20 1 -3.55913 -3.60717 4.25763 0 0 0
21 1 -3.79493 -5.10644 4.84271 0 0 0
22 1 -5.2157 -5.01148 5.27645 0 0 0
23 1 -4.7426 -6.15724 6.28214 0 0 0
24 1 -5.36567 -6.14239 7.59513 0 0 0
25 1 -5.96911 -7.23358 8.4047 0 0 0
26 5 -5.62678 -7.93629 9.9221 0 0 0
42 6 -1.0863 -0.475864 1.50183 0 0 0
43 6 -0.780568 -0.425632 0.330223 0 0 0
44 6 -0.409788 -2.85898 0.740211 0 0 0
45 6 -0.989556 -3.46504 1.61278 0 0 0
46 6 -2.67566 -1.71976 3.27913 0 0 0
47 6 -2.41898 -1.63644 1.89733 0 0 0
48 6 -1.84294 -4.52868 2.81933 0 0 0
49 6 -3.66664 -4.11627 3.12696 0 0 0
50 6 -3.80304 -2.75727 5.01461 0 0 0
51 6 -3.55957 -3.24192 3.08155 0 0 0
52 6 -3.21786 -5.6143 4.0192 0 0 0
53 6 -4.7366 -5.84439 4.79712 0 0 0
54 6 -5.65248 -4.62111 6.2002 0 0 0
55 6 -4.8051 -4.13993 4.61632 0 0 0
56 6 -4.58806 -7.19757 5.84623 0 0 0
57 6 -5.71982 -6.48065 6.78497 0 0 0
58 6 -6.21217 -5.43253 7.91428 0 0 0
59 6 -5.65725 -6.7747 6.6316 0 0 0
60 6 -6.10549 -8.16752 7.70782 0 0 0
61 6 -6.85201 -6.60928 9.07636 0 0 0
62 7 -6.77404 -8.5095 9.49006 0 0 0
72 3 10.8864 13.9731 8.93203 0 0 0
74 3 11.0069 14.5064 7.53566 0 0 0
79 3 11.0199 13.387 6.20755 0 0 0
82 3 11.2024 10.6874 8.70537 0 0 0
83 4 11.8691 12.411 6.80905 0 0 0
85 4 11.8407 11.6971 8.02855 0 0 0
89 5 10.9518 13.0937 9.69477 0 0 0
91 5 10.1719 14.0378 8.36524 0 0 0
95 5 10.1854 15.2587 7.37435 0 0 0
96 5 11.4684 15.4844 7.85583 0 0 0
105 5 11.56 13.433 5.19449 0 0 0
106 5 10.1611 12.843 5.56284 0 0 0
111 5 10.3166 10.6605 8.09988 0 0 0
112 5 10.7364 11.1093 7.94717 0 0 0
113 5 12.3691 12.1401 5.84266 0 0 0
116 5 11.7427 11.294 7.30927 0 0 0
1 1 6.29687 5.81818 -7.68281 0 0 0
2 1 5.86429 4.40285 -7.43457 0 0 0
3 1 5.32662 4.09081 -6.03986 0 0 0
4 2 5.272 5.25496 -5.249 0 0 0
5 3 4.19774 4.9093 -4.39538 0 0 0
6 3 3.6743 6.17839 -4.3659 0 0 0
7 3 2.69842 6.25923 -3.47788 0 0 0
8 3 2.24789 5.12791 -2.84767 0 0 0
9 3 1.51831 4.57316 -1.88087 0 0 0
10 4 0.900872 5.45691 -1.29876 0 0 0
11 3 1.51177 3.18401 -1.58499 0 0 0
12 3 2.20209 2.01461 -2.01169 0 0 0
13 3 2.01294 0.86036 -2.15683 0 0 0
14 3 1.05455 0.462685 -1.14573 0 0 0
27 3 0.306125 1.5464 -0.550792 0 0 0
28 3 0.469042 2.86637 -0.788393 0 0 0
29 3 2.48042 3.99178 -3.37919 0 0 0
30 3 3.63911 3.80489 -3.68289 0 0 0
31 1 5.13987 5.67127 -6.69384 0 0 0
32 6 7.26405 5.24856 -8.23519 0 0 0
33 6 5.84496 6.89535 -7.77202 0 0 0
34 6 4.94015 4.42885 -8.0132 0 0 0
35 6 6.87311 3.74189 -7.72865 0 0 0
36 6 6.23853 3.61498 -6.04102 0 0 0
37 6 5.10416 3.16943 -5.55997 0 0 0
38 6 3.97826 7.02066 -4.86406 0 0 0
39 6 2.39203 7.14461 -3.43608 0 0 0
40 6 2.67102 1.74738 -2.9098 0 0 0
65 6 1.9221 3.20633 -3.66439 0 0 0
66 6 3.6373 2.80677 -3.44222 0 0 0
67 6 6.04963 5.08258 -6.83979 0 0 0
68 6 4.92222 6.77724 -6.77266 0 0 0
69 1 6.57087 8.21616 14.1112 0 0 0
70 2 7.92766 7.58695 12.7813 0 0 0
84 3 9.79667 6.23796 10.9201 0 0 0
86 3 6.96293 9.91067 13.373 0 0 0
87 3 9.33525 5.76681 12.1844 0 0 0
88 4 7.1153 8.50719 12.9579 0 0 0
114 5 10.2637 6.67615 11.8443 0 0 0
115 5 8.82242 6.62148 10.7748 0 0 0
117 5 7.55355 9.7589 14.3643 0 0 0
119 5 9.79115 5.26819 13.0217 0 0 0
120 5 9.53322 4.91636 11.8575 0 0 0
121 5 10.0646 6.53027 12.2896 0 0 0
122 6 6.75454 7.27305 14.1937 0 0 0
64 6 -0.160446 3.53469 -0.347174 0 0 0
109 5 10.3825 4.81309 9.05562 0 0 0
15 5 0.686828 -1.17713 -0.493209 0 0 0
41 6 2.78636 0.894304 -3.006 0 0 0
73 3 9.1332 12.6222 10.6504 0 0 0
75 3 8.72865 11.1861 11.2509 0 0 0
80 3 7.43764 10.4086 11.8486 0 0 0
90 5 9.54798 13.4683 9.28374 0 0 0
93 5 8.50465 13.591 10.9271 0 0 0
94 5 10.0629 12.6418 11.218 0 0 0
97 5 7.85465 11.6077 11.7768 0 0 0
98 5 8.82593 10.3699 10.4754 0 0 0
107 5 8.13737 9.82118 11.2057 0 0 0
108 5 7.35293 11.3424 12.2856 0 0 0
118 5 5.89904 10.1771 13.9908 0 0 0
ITEM: TIMESTEP
75
ITEM: NUMBER OF ATOMS
122
ITEM: BOX BOUNDS pp pp pp
0.0000000000000000e+00 2.0000000000000000e+01
0.0000000000000000e+00 2.0000000000000000e+01
0.0000000000000000e+00 2.0000000000000000e+01
ITEM: ATOMS id type xu yu zu vx vy vz
63 6 -0.299436 1.33431 -0.0603444 0 0 0
76 3 11.5643 8.3622 9.51754 0 0 0
77 3 11.233 7.2836 8.33251 0 0 0
78 3 12.3053 9.53733 8.94611 0 0 0
81 3 10.64 6.03674 9.31542 0 0 0
99 5 10.9274 8.51513 10.4135 0 0 0
100 5 12.4164 8.30146 10.2202 0 0 0
101 5 12.0742 6.60636 7.92197 0 0 0
102 5 10.9123 7.92593 7.27791 0 0 0
103 5 13.1365 9.43675 8.22643 0 0 0
104 5 13.2128 9.18211 9.62895 0 0 0
110 5 11.694 5.69596 9.15303 0 0 0
71 3 10.1849 12.98 9.57484 0 0 0
92 5 11.0258 14.7777 9.19872 0 0 0
16 1 -0.571218 -1.15132 0.704935 0 0 0
17 1 -1.37613 -2.50621 1.2156 0 0 0
18 1 -2.03006 -2.30544 2.67904 0 0 0
19 1 -2.70993 -3.76983 3.10703 0 0 0
20 1 -3.49605 -3.74237 4.36639 0 0 0
21 1 -3.81632 -5.26838 4.84169 0 0 0
22 1 -5.24941 -5.03218 5.10308 0 0 0
23 1 -4.88901 -6.22239 6.21242 0 0 0
24 1 -5.13974 -6.19662 7.64125 0 0 0
25 1 -6.06851 -7.14603 8.41876 0 0 0
26 5 -5.2237 -8.12014 9.53024 0 0 0
42 6 -0.558139 -0.564375 1.634 0 0 0
43 6 -1.1738 -0.561205 0.0166156 0 0 0
44 6 -0.422657 -2.905 0.841148 0 0 0
45 6 -1.12063 -3.41227 1.78864 0 0 0
46 6 -2.7421 -1.61186 3.23398 0 0 0
47 6 -2.16959 -1.43664 1.94102 0 0 0
48 6 -1.87297 -4.5089 3.01439 0 0 0
49 6 -3.8875 -4.08159 2.97348 0 0 0
50 6 -3.64131 -2.99639 5.2252 0 0 0
51 6 -3.24634 -3.27369 3.20629 0 0 0
52 6 -3.41847 -5.59133 3.84499 0 0 0
53 6 -4.78551 -5.95802 5.0676 0 0 0
54 6 -5.85561 -4.78673 6.01652 0 0 0
55 6 -4.80136 -4.1211 4.4853 0 0 0
56 6 -4.16042 -7.17416 6.07855 0 0 0
57 6 -5.94203 -6.54965 6.73412 0 0 0
58 6 -5.9025 -5.43208 8.00596 0 0 0
59 6 -5.39599 -6.78221 6.66753 0 0 0
60 6 -6.51147 -8.11023 7.8561 0 0 0
61 6 -6.73629 -6.44027 9.19664 0 0 0
62 7 -6.53143 -8.42411 9.2291 0 0 0
72 3 10.9245 13.932 8.56887 0 0 0
74 3 10.7718 14.649 7.13823 0 0 0
79 3 11.1109 13.4505 5.90486 0 0 0
82 3 11.3204 10.8285 8.95955 0 0 0
83 4 11.7321 12.3196 6.72331 0 0 0
85 4 11.5248 11.7595 8.06736 0 0 0
89 5 11.0757 13.3523 9.75864 0 0 0
91 5 9.97909 13.7025 8.36003 0 0 0
95 5 9.97367 15.5495 7.15273 0 0 0
96 5 11.5406 15.4274 7.31982 0 0 0
105 5 11.8244 13.5865 4.97288 0 0 0
106 5 10.3866 12.8457 5.20791 0 0 0
111 5 10.5578 10.6295 8.23297 0 0 0
112 5 10.8659 11.0764 8.1439 0 0 0
113 5 12.2817 11.992 5.8207 0 0 0
116 5 10.7974 11.165 7.8371 0 0 0
1 1 6.1199 5.49831 -7.89549 0 0 0
2 1 5.53159 4.12555 -7.51032 0 0 0
3 1 5.40967 3.86754 -5.94476 0 0 0
4 2 5.15332 4.98907 -5.1522 0 0 0
5 3 4.00892 4.722 -4.30883 0 0 0
6 3 3.56282 5.99327 -4.38808 0 0 0
7 3 2.53979 6.19456 -3.5836 0 0 0
8 3 1.95571 5.03216 -3.04968 0 0 0
9 3 1.55335 4.74346 -1.79402 0 0 0
10 4 0.930824 5.62929 -1.19491 0 0 0
11 3 1.66971 3.41416 -1.33118 0 0 0
12 3 2.42917 2.25911 -1.61601 0 0 0
13 3 2.06793 1.32816 -2.37088 0 0 0
14 3 1.21303 0.65291 -1.41696 0 0 0
27 3 0.435449 1.59251 -0.703939 0 0 0
28 3 0.54818 2.95626 -0.729047 0 0 0
29 3 1.98647 3.79151 -3.60773 0 0 0
30 3 3.3424 3.76161 -3.51838 0 0 0
31 1 5.13204 5.43716 -6.65065 0 0 0
32 6 7.27616 5.08834 -8.16797 0 0 0
33 6 5.87112 6.64762 -7.71804 0 0 0
34 6 4.49965 4.24297 -7.81022 0 0 0
35 6 6.18381 3.32991 -8.1255 0 0 0
36 6 6.38927 3.79361 -5.5893 0 0 0
37 6 4.78659 3.0234 -5.68792 0 0 0
38 6 4.02772 6.76149 -4.85972 0 0 0
39 6 2.47352 7.16119 -3.43561 0 0 0
40 6 2.69353 1.94664 -2.62912 0 0 0
65 6 1.3533 2.96296 -3.44256 0 0 0
66 6 3.76028 3.17012 -2.82856 0 0 0
67 6 5.93723 4.72048 -6.92899 0 0 0
68 6 4.99246 6.54126 -6.74927 0 0 0
69 1 6.92386 7.5944 14.2167 0 0 0
70 2 7.90583 7.35866 12.7347 0 0 0
84 3 9.79725 6.18415 10.8407 0 0 0
86 3 7.16378 9.8923 13.5383 0 0 0
87 3 9.60761 5.9267 12.3818 0 0 0
88 4 7.29463 8.34899 13.2332 0 0 0
114 5 10.4699 6.08515 11.7446 0 0 0
115 5 8.86691 6.61677 10.7281 0 0 0
117 5 7.57806 10.1623 14.6051 0 0 0
119 5 10.1306 5.1993 13.0334 0 0 0
120 5 9.4655 5.24309 11.8076 0 0 0
121 5 10.2816 6.6931 12.5131 0 0 0
122 6 7.29109 6.71996 13.8514 0 0 0
64 6 -0.18199 3.53237 -0.316861 0 0 0
109 5 10.2751 5.04842 8.88077 0 0 0
15 5 0.871216 -0.977814 -0.593248 0 0 0
41 6 2.75388 1.67224 -3.27237 0 0 0
73 3 9.37978 12.7779 10.9455 0 0 0
75 3 8.85069 11.2008 11.1308 0 0 0
80 3 7.71339 10.4266 12.034 0 0 0
90 5 9.66681 13.3665 8.80402 0 0 0
93 5 8.60011 13.6038 11.1121 0 0 0
94 5 9.99685 13.0136 11.8647 0 0 0
97 5 7.8513 11.3713 10.844 0 0 0
98 5 8.85427 10.4986 10.3237 0 0 0
107 5 7.53476 9.67191 11.1961 0 0 0
108 5 6.91496 11.1192 11.8709 0 0 0
118 5 6.05858 10.2125 13.9736 0 0 0
ITEM: TIMESTEP
100
ITEM: NUMBER OF ATOMS
122
ITEM: BOX BOUNDS pp pp pp
0.0000000000000000e+00 2.0000000000000000e+01
0.0000000000000000e+00 2.0000000000000000e+01
0.0000000000000000e+00 2.0000000000000000e+01
ITEM: ATOMS id type xu yu zu vx vy vz
63 6 -0.32556 1.33402 -0.223663 0 0 0
76 3 11.6187 8.46315 9.73778 0 0 0
77 3 11.111 7.56462 8.39926 0 0 0
78 3 12.3446 9.69337 9.31257 0 0 0
81 3 10.586 6.25127 9.2264 0 0 0
99 5 11.2753 8.41699 10.8345 0 0 0
100 5 12.6131 8.2533 10.1939 0 0 0
101 5 11.852 6.88557 7.86752 0 0 0
102 5 10.7971 8.11214 7.30849 0 0 0
103 5 13.0359 9.4932 8.51538 0 0 0
104 5 13.2169 9.41869 10.0892 0 0 0
110 5 11.5726 5.82797 9.00426 0 0 0
71 3 10.2007 13.1333 9.60026 0 0 0
92 5 11.0559 14.8299 9.11301 0 0 0
16 1 -0.607073 -1.16404 0.629174 0 0 0
17 1 -1.40852 -2.51576 1.26202 0 0 0
18 1 -2.19191 -2.29782 2.66235 0 0 0
19 1 -3.03092 -3.72657 2.95536 0 0 0
20 1 -3.13318 -3.88272 4.4517 0 0 0
21 1 -3.82983 -5.42631 4.66311 0 0 0
22 1 -5.22202 -4.96605 4.97953 0 0 0
23 1 -4.96217 -6.15129 6.15897 0 0 0
24 1 -5.10203 -6.19529 7.60059 0 0 0
25 1 -6.10867 -7.11001 8.36756 0 0 0
26 5 -5.05555 -8.08979 9.28172 0 0 0
42 6 -0.357705 -0.726505 1.60514 0 0 0
43 6 -1.28721 -0.520213 0.0433285 0 0 0
44 6 -0.498203 -3.01337 0.917343 0 0 0
45 6 -1.11493 -3.19471 2.13251 0 0 0
46 6 -3.10188 -1.80866 3.06613 0 0 0
47 6 -2.07786 -1.35027 1.98769 0 0 0
48 6 -2.1489 -4.46265 2.87085 0 0 0
49 6 -4.1743 -4.05761 2.88261 0 0 0
50 6 -3.50417 -3.23373 5.35147 0 0 0
51 6 -2.18903 -3.34774 3.69205 0 0 0
52 6 -3.61076 -5.65129 3.59205 0 0 0
53 6 -4.84983 -6.05903 5.01176 0 0 0
54 6 -6.01901 -5.06227 5.81596 0 0 0
55 6 -4.8686 -3.91585 4.46935 0 0 0
56 6 -3.94235 -6.83273 6.22086 0 0 0
57 6 -6.05054 -6.60617 6.6331 0 0 0
58 6 -5.85137 -5.41174 7.92459 0 0 0
59 6 -5.1268 -6.88563 6.65639 0 0 0
60 6 -6.64664 -8.10248 7.92284 0 0 0
61 6 -6.71995 -6.39874 9.16607 0 0 0
62 7 -6.39189 -8.32373 9.06499 0 0 0
72 3 10.9278 13.9715 8.50511 0 0 0
74 3 10.7999 14.6136 7.01368 0 0 0
79 3 11.2402 13.4546 5.81727 0 0 0
82 3 11.3992 10.9898 9.1233 0 0 0
83 4 11.6071 12.2224 6.72892 0 0 0
85 4 11.2995 11.716 8.07357 0 0 0
89 5 11.0915 13.4692 9.74678 0 0 0
91 5 9.95889 13.7497 8.35189 0 0 0
95 5 9.99332 15.4802 6.91608 0 0 0
96 5 11.5486 15.4089 7.15279 0 0 0
105 5 11.9891 13.7031 4.89614 0 0 0
106 5 10.543 12.8976 5.0815 0 0 0
111 5 10.8168 10.616 8.45561 0 0 0
112 5 10.5903 11.0026 8.47506 0 0 0
113 5 12.1043 11.6996 5.93437 0 0 0
116 5 10.5163 11.0738 8.1118 0 0 0
1 1 6.00239 5.29948 -7.91746 0 0 0
2 1 5.34538 3.96332 -7.47285 0 0 0
3 1 5.35193 3.67129 -5.90465 0 0 0
4 2 5.02277 4.80832 -5.16619 0 0 0
5 3 3.80684 4.67008 -4.43865 0 0 0
6 3 3.43258 5.94734 -4.49155 0 0 0
7 3 2.43526 6.13068 -3.6344 0 0 0
8 3 1.78663 5.0125 -3.04167 0 0 0
9 3 1.5887 4.78934 -1.71029 0 0 0
10 4 1.07449 5.73844 -1.111 0 0 0
11 3 1.77614 3.46302 -1.18565 0 0 0
12 3 2.59152 2.2958 -1.51361 0 0 0
13 3 2.32383 1.30663 -2.3014 0 0 0
14 3 1.1865 0.768787 -1.5625 0 0 0
27 3 0.41734 1.66828 -0.81546 0 0 0
28 3 0.596373 3.01623 -0.677484 0 0 0
29 3 1.72561 3.74605 -3.55319 0 0 0
30 3 3.06636 3.90603 -3.55655 0 0 0
31 1 5.09458 5.34421 -6.63567 0 0 0
32 6 7.14968 4.87774 -8.18701 0 0 0
33 6 5.82012 6.45206 -7.69845 0 0 0
34 6 4.31604 4.14827 -7.65705 0 0 0
35 6 5.77587 3.13654 -8.16243 0 0 0
36 6 6.34563 3.62804 -5.54667 0 0 0
37 6 4.75658 2.82912 -5.61399 0 0 0
38 6 3.96764 6.69675 -4.91263 0 0 0
39 6 2.49031 7.07876 -3.43077 0 0 0
40 6 3.02552 2.12466 -2.48723 0 0 0
65 6 1.22893 2.87591 -3.19321 0 0 0
66 6 3.39292 3.74156 -2.6618 0 0 0
67 6 5.84039 4.55512 -6.87184 0 0 0
68 6 5.18369 6.45307 -6.63686 0 0 0
69 1 7.49962 7.21731 14.1708 0 0 0
70 2 7.69753 7.35689 12.654 0 0 0
84 3 9.96024 6.24974 10.7693 0 0 0
86 3 7.24919 9.92245 13.519 0 0 0
87 3 10.0856 6.09367 12.2612 0 0 0
88 4 7.53647 8.2895 13.3899 0 0 0
114 5 10.5101 5.46305 11.2844 0 0 0
115 5 8.99166 6.47926 10.8708 0 0 0
117 5 7.68988 10.4139 14.4943 0 0 0
119 5 10.3892 5.13583 12.7667 0 0 0
120 5 9.25273 5.70595 11.8658 0 0 0
121 5 10.1231 6.90809 12.9338 0 0 0
122 6 7.8627 6.53283 13.4671 0 0 0
64 6 -0.14353 3.5846 -0.265672 0 0 0
109 5 10.0722 5.36741 8.75199 0 0 0
15 5 0.794219 -0.887398 -0.735491 0 0 0
41 6 2.74656 1.85883 -3.22698 0 0 0
73 3 9.35942 12.7957 10.94 0 0 0
75 3 8.69733 11.2201 10.8896 0 0 0
80 3 7.5429 10.5258 11.9313 0 0 0
90 5 9.68949 13.51 8.83762 0 0 0
93 5 8.58832 13.6016 11.1603 0 0 0
94 5 9.93395 13.0119 11.9164 0 0 0
97 5 8.27288 10.8126 9.93611 0 0 0
98 5 9.26115 10.3897 10.8164 0 0 0
107 5 7.38378 9.67119 11.2142 0 0 0
108 5 6.65607 11.1075 11.7447 0 0 0
118 5 6.18217 10.2633 13.9906 0 0 0
ITEM: TIMESTEP
125
ITEM: NUMBER OF ATOMS
122
ITEM: BOX BOUNDS pp pp pp
0.0000000000000000e+00 2.0000000000000000e+01
0.0000000000000000e+00 2.0000000000000000e+01
0.0000000000000000e+00 2.0000000000000000e+01
ITEM: ATOMS id type xu yu zu vx vy vz
63 6 -0.444993 1.38523 -0.559036 0 0 0
76 3 11.7085 8.49246 9.86292 0 0 0
77 3 11.0944 7.77126 8.44172 0 0 0
78 3 12.3589 9.85285 9.7712 0 0 0
81 3 10.4588 6.46806 9.13306 0 0 0
99 5 11.4177 8.23475 10.9165 0 0 0
100 5 12.7501 8.17432 10.134 0 0 0
101 5 11.7731 7.08963 7.85452 0 0 0
102 5 10.8754 8.29313 7.3303 0 0 0
103 5 13.0006 9.46855 9.04867 0 0 0
104 5 13.1993 9.78599 10.6306 0 0 0
110 5 11.3648 6.00156 8.77446 0 0 0
71 3 10.0743 13.1688 9.50799 0 0 0
92 5 11.0009 14.8137 9.02247 0 0 0
16 1 -0.600314 -1.17412 0.704674 0 0 0
17 1 -1.26754 -2.55523 1.51853 0 0 0
18 1 -2.32301 -2.32366 2.76014 0 0 0
19 1 -3.14942 -3.68421 3.00351 0 0 0
20 1 -2.83177 -4.28416 4.41837 0 0 0
21 1 -3.96628 -5.50352 4.24022 0 0 0
22 1 -5.06003 -4.71531 4.98557 0 0 0
23 1 -4.93476 -5.78195 6.17218 0 0 0
24 1 -5.0654 -6.1216 7.57886 0 0 0
25 1 -6.15166 -7.05547 8.28782 0 0 0
26 5 -4.99942 -8.09695 8.99397 0 0 0
42 6 -0.50398 -0.731388 1.70745 0 0 0
43 6 -1.36725 -0.58733 0.163021 0 0 0
44 6 -0.965782 -3.40978 0.887009 0 0 0
45 6 -0.848513 -3.05599 2.45554 0 0 0
46 6 -3.43057 -2.46726 3.06218 0 0 0
47 6 -2.32854 -1.27326 2.24433 0 0 0
48 6 -2.44486 -4.17387 2.26622 0 0 0
49 6 -4.34769 -3.75607 2.93841 0 0 0
50 6 -3.24353 -3.96562 5.49305 0 0 0
51 6 -1.90258 -3.65499 3.77192 0 0 0
52 6 -3.90928 -5.50725 3.11459 0 0 0
53 6 -4.44912 -6.49787 4.84698 0 0 0
54 6 -6.06914 -5.134 5.31867 0 0 0
55 6 -4.76802 -3.5559 4.61069 0 0 0
56 6 -3.77663 -5.88142 6.3363 0 0 0
57 6 -6.01692 -6.39511 6.49449 0 0 0
58 6 -5.86249 -5.34523 7.74545 0 0 0
59 6 -4.66485 -6.73962 6.63026 0 0 0
60 6 -6.68704 -8.1215 7.9594 0 0 0
61 6 -6.75904 -6.34087 9.09442 0 0 0
62 7 -6.31881 -8.37042 8.71901 0 0 0
72 3 10.8894 13.9322 8.43688 0 0 0
74 3 10.8281 14.565 6.92836 0 0 0
79 3 11.3333 13.4067 5.77017 0 0 0
82 3 11.5298 11.1495 9.27953 0 0 0
83 4 11.5619 12.1551 6.75986 0 0 0
85 4 11.2424 11.6406 8.10853 0 0 0
89 5 10.9727 13.5992 9.60287 0 0 0
91 5 9.9062 13.6649 8.30485 0 0 0
95 5 9.9796 15.3636 6.80306 0 0 0
96 5 11.5344 15.3996 7.05266 0 0 0
105 5 12.087 13.5756 4.83 0 0 0
106 5 10.6801 13.0125 4.91428 0 0 0
111 5 11.0105 10.6128 8.77667 0 0 0
112 5 10.7104 10.9673 8.68382 0 0 0
113 5 11.9468 11.528 6.0063 0 0 0
116 5 10.5308 10.9876 8.2262 0 0 0
1 1 6.13592 5.06963 -7.73608 0 0 0
2 1 5.26372 3.78819 -7.36971 0 0 0
3 1 5.11229 3.36084 -5.82357 0 0 0
4 2 4.79384 4.51261 -5.07686 0 0 0
5 3 3.45955 4.5435 -4.58584 0 0 0
6 3 3.13722 5.84276 -4.61639 0 0 0
7 3 2.26539 6.02805 -3.59374 0 0 0
8 3 1.61733 4.9664 -2.85879 0 0 0
9 3 1.59907 4.81832 -1.4719 0 0 0
10 4 1.23271 5.8146 -0.841786 0 0 0
11 3 1.95453 3.48068 -1.0204 0 0 0
12 3 2.9162 2.46489 -1.56581 0 0 0
13 3 2.47671 1.4696 -2.31894 0 0 0
14 3 1.28493 0.900751 -1.61935 0 0 0
27 3 0.422064 1.75006 -0.937901 0 0 0
28 3 0.719352 3.04004 -0.594885 0 0 0
29 3 1.37861 3.72885 -3.42905 0 0 0
30 3 2.65955 3.99791 -3.64062 0 0 0
31 1 5.24826 5.22007 -6.42859 0 0 0
32 6 7.33863 4.73535 -8.01955 0 0 0
33 6 5.88946 6.23253 -7.7937 0 0 0
34 6 4.29213 4.1405 -7.50962 0 0 0
35 6 5.49041 2.96031 -8.10752 0 0 0
36 6 6.04255 3.15995 -5.38183 0 0 0
37 6 4.46583 2.53589 -5.6265 0 0 0
38 6 3.70238 6.5799 -5.04269 0 0 0
39 6 2.50472 6.90879 -3.31915 0 0 0
40 6 3.7179 2.56644 -2.31782 0 0 0
65 6 1.0719 2.86073 -2.95969 0 0 0
66 6 3.01414 4.01299 -2.83074 0 0 0
67 6 5.85125 4.30539 -6.65023 0 0 0
68 6 5.51287 6.28962 -6.31478 0 0 0
69 1 7.6615 7.40989 14.0716 0 0 0
70 2 7.84239 7.47033 12.3449 0 0 0
84 3 9.96184 6.12009 10.6664 0 0 0
86 3 7.3164 9.97883 13.3778 0 0 0
87 3 10.316 6.11806 12.1667 0 0 0
88 4 7.71644 8.39718 13.1974 0 0 0
114 5 9.96341 5.06584 10.7014 0 0 0
115 5 9.04708 6.35422 10.7511 0 0 0
117 5 7.73299 10.5341 14.3344 0 0 0
119 5 10.9491 5.28501 12.512 0 0 0
120 5 9.45041 5.65131 12.1945 0 0 0
121 5 10.1765 6.81027 12.9682 0 0 0
122 6 7.88902 6.68969 13.3873 0 0 0
64 6 -0.0115643 3.62471 -0.167423 0 0 0
109 5 9.8006 5.7552 8.57365 0 0 0
15 5 0.781303 -0.738004 -0.728804 0 0 0
41 6 2.76574 1.99487 -3.27978 0 0 0
73 3 9.31167 12.8071 10.8917 0 0 0
75 3 8.86076 11.1561 10.9626 0 0 0
80 3 7.50206 10.6374 11.8322 0 0 0
90 5 9.51914 13.3915 8.723 0 0 0
93 5 8.51454 13.6072 11.0934 0 0 0
94 5 9.83486 13.0727 11.8785 0 0 0
97 5 8.48136 10.4802 10.1508 0 0 0
98 5 9.69009 10.5457 11.2964 0 0 0
107 5 7.13088 9.9052 11.0623 0 0 0
108 5 6.6106 11.2661 11.6714 0 0 0
118 5 6.25214 10.2236 13.8937 0 0 0
ITEM: TIMESTEP
150
ITEM: NUMBER OF ATOMS
122
ITEM: BOX BOUNDS pp pp pp
0.0000000000000000e+00 2.0000000000000000e+01
0.0000000000000000e+00 2.0000000000000000e+01
0.0000000000000000e+00 2.0000000000000000e+01
ITEM: ATOMS id type xu yu zu vx vy vz
63 6 -0.381486 1.48865 -0.713747 0 0 0
76 3 11.807 8.55354 9.95992 0 0 0
77 3 11.1671 7.88507 8.52199 0 0 0
78 3 12.3103 10.0202 10.1046 0 0 0
81 3 10.3008 6.68487 9.10582 0 0 0
99 5 11.589 8.14367 10.9687 0 0 0
100 5 12.8483 8.17269 10.1212 0 0 0
101 5 11.8816 7.23058 7.97182 0 0 0
102 5 11.068 8.33662 7.39111 0 0 0
103 5 12.975 9.51383 9.53166 0 0 0
104 5 13.1296 10.1264 11.0012 0 0 0
110 5 11.169 6.22237 8.65663 0 0 0
71 3 9.8987 13.1384 9.38847 0 0 0
92 5 10.9297 14.7098 8.93321 0 0 0
16 1 -0.558814 -1.16425 0.776644 0 0 0
17 1 -1.24308 -2.55891 1.61345 0 0 0
18 1 -2.36652 -2.25543 2.79796 0 0 0
19 1 -3.13402 -3.65057 2.94308 0 0 0
20 1 -2.73772 -4.44448 4.25339 0 0 0
21 1 -3.95228 -5.51416 4.19095 0 0 0
22 1 -5.04503 -4.63223 4.89584 0 0 0
23 1 -5.18096 -5.77078 5.99408 0 0 0
24 1 -5.03506 -6.068 7.40239 0 0 0
25 1 -6.17747 -6.99617 8.17779 0 0 0
26 5 -5.16823 -8.28006 8.65965 0 0 0
42 6 -0.671805 -0.611012 1.72582 0 0 0
43 6 -1.35869 -0.757177 0.146584 0 0 0
44 6 -1.48956 -3.1488 0.713619 0 0 0
45 6 -0.7382 -3.26931 2.34635 0 0 0
46 6 -3.29794 -2.67643 3.425 0 0 0
47 6 -2.52628 -1.21481 2.32206 0 0 0
48 6 -2.51898 -4.12019 2.14032 0 0 0
49 6 -4.31631 -3.66839 2.96579 0 0 0
50 6 -3.03046 -4.28008 5.40054 0 0 0
51 6 -1.74222 -4.00512 3.61343 0 0 0
52 6 -4.01721 -5.4806 3.05803 0 0 0
53 6 -4.07379 -6.53945 4.91189 0 0 0
54 6 -6.16625 -4.84923 4.87925 0 0 0
55 6 -4.54773 -3.49841 4.68303 0 0 0
56 6 -4.10631 -5.48635 6.34202 0 0 0
57 6 -6.2581 -6.1894 6.41518 0 0 0
58 6 -5.4946 -5.09427 7.70348 0 0 0
59 6 -4.06368 -6.31596 6.71468 0 0 0
60 6 -6.73853 -8.08826 7.96532 0 0 0
61 6 -6.7907 -6.28307 8.99166 0 0 0
62 7 -6.41951 -8.68038 8.16957 0 0 0
72 3 10.8301 13.819 8.35688 0 0 0
74 3 10.8307 14.5023 6.87179 0 0 0
79 3 11.3776 13.3605 5.73549 0 0 0
82 3 11.573 11.2683 9.35206 0 0 0
83 4 11.522 12.079 6.73446 0 0 0
85 4 11.2396 11.5643 8.10367 0 0 0
89 5 10.7834 13.6516 9.42076 0 0 0
91 5 9.83238 13.5483 8.22273 0 0 0
95 5 9.9269 15.2227 6.76457 0 0 0
96 5 11.5007 15.3786 6.97021 0 0 0
105 5 12.1178 13.5251 4.77934 0 0 0