ITEM: TIMESTEP
0
ITEM: NUMBER OF ATOMS
122
ITEM: BOX BOUNDS pp pp pp
0.0000000000000000e+00 2.0000000000000000e+01
0.0000000000000000e+00 2.0000000000000000e+01
0.0000000000000000e+00 2.0000000000000000e+01
ITEM: ATOMS id type xu yu zu vx vy vz
81 3 9.99748 7.51991 9.40883 -0 -0 0
64 6 1.82908 3.61996 0.529566 -0 0 -0
109 5 9.25636 6.87434 8.80777 0 0 0
77 3 11.4562 7.84715 8.85539 0 0 0
101 5 12.1234 7.06735 8.47295 0 0 -0
102 5 11.4403 8.15258 7.66793 0 -0 0
103 5 13.1937 9.70113 9.65335 -0 -0 0
110 5 10.411 7.84102 8.43102 -0 -0 -0
71 3 9.95769 12.9858 9.35321 0 -0 0
91 5 9.64216 13.258 8.24571 0 -0 0
95 5 9.3692 14.8107 6.62347 -0 0 -0
90 5 9.19541 12.8421 8.68281 -0 0 0
92 5 10.8957 14.5228 8.67154 0 -0 -0
16 1 -0.455765 -0.947518 0.418869 0 0 -0
17 1 -1.12491 -2.32088 1.33853 -0 0 0
18 1 -2.35503 -2.16042 2.39538 0 0 -0
19 1 -3.16311 -3.52155 2.66574 0 -0 0
20 1 -2.64033 -4.31244 3.95357 -0 -0 0
21 1 -3.75495 -5.47783 4.06733 0 -0 -0
22 1 -4.96 -4.71354 4.63169 0 0 -0
23 1 -5.37741 -5.07463 6.09665 -0 -0 -0
24 1 -4.95498 -6.21783 7.05938 -0 0 -0
25 1 -6.15863 -7.06791 7.82271 0 0 0
26 5 -5.16322 -8.46859 8.02114 0 0 0
42 6 -0.855592 -0.123752 1.0282 -0 -0 -0
44 6 -1.49832 -2.83937 0.449767 0 -0 0
45 6 -0.704344 -3.14953 2.03695 -0 0 -0
46 6 -2.27633 -2.38977 3.49849 -0 0 0
47 6 -2.5986 -1.05348 2.18241 0 0 0
48 6 -2.56657 -3.9958 1.84213 0 -0 -0
49 6 -4.32202 -3.65849 2.69259 -0 0 -0
50 6 -2.97877 -4.25499 5.10443 -0 -0 -0
51 6 -1.50767 -4.08374 3.39413 -0 -0 0
52 6 -3.88828 -5.52112 2.94865 -0 0 -0
53 6 -3.9492 -6.33009 4.93013 0 0 0
54 6 -5.96469 -5.14833 4.32268 0 0 0
55 6 -4.56322 -3.57907 4.4058 -0 -0 0
56 6 -4.52567 -4.3392 6.21886 0 0 0
57 6 -6.58132 -5.041 6.30892 0 0 -0
58 6 -4.78409 -5.59759 7.96658 0 0 -0
59 6 -3.9341 -6.58227 6.65209 0 -0 0
60 6 -6.70935 -8.17393 7.74727 0 0 -0
61 6 -6.7394 -6.34462 8.63741 0 -0 -0
62 7 -6.42607 -8.96405 7.69229 -0 -0 -0
72 3 10.6515 13.6359 8.1435 0 -0 0
74 3 10.428 14.3992 6.73066 0 0 -0
79 3 11.2296 13.4145 5.65724 -0 0 -0
82 3 11.7133 11.2762 9.29649 -0 0 0
83 4 11.3663 12.0844 6.64459 0 -0 -0
85 4 11.3399 11.4525 8.01379 0 0 0
89 5 10.738 13.5893 9.16788 0 -0 -0
96 5 10.8374 15.4326 6.78394 -0 0 0
105 5 12.0034 13.7627 4.80141 -0 0 -0
106 5 10.6959 13.1228 4.67992 0 0 -0
111 5 11.5499 10.617 8.82832 -0 -0 0
112 5 10.9945 10.8193 8.71265 -0 0 -0
113 5 11.3682 11.4197 5.84593 -0 -0 0
116 5 10.7862 10.7634 8.20359 -0 0 -0
63 6 0.663871 1.71652 -0.188891 0 0 -0
1 1 5.49003 4.10847 -6.29865 0 -0 -0
2 1 5.16692 2.71199 -5.4068 0 0 0
3 1 3.94271 2.3444 -5.08825 0 -0 0
4 2 3.39239 3.63445 -5.0537 0 -0 -0
5 3 1.96174 3.99035 -4.72179 0 -0 -0
6 3 2.11133 5.31844 -5.01541 -0 -0 -0
7 3 2.2107 5.96581 -3.82613 -0 0 -0
8 3 1.79941 5.25887 -2.67238 0 0 -0
9 3 2.61213 5.01549 -1.59146 0 -0 0
10 4 2.51337 5.83401 -0.666231 0 -0 -0
11 3 2.85154 3.65383 -1.36105 0 0 -0
12 3 3.14421 2.79227 -2.358 0 0 -0
13 3 2.74909 1.60714 -2.73789 -0 -0 -0
14 3 1.76619 1.15907 -1.75338 0 0 -0
27 3 1.51701 1.94832 -0.669617 0 -0 0
28 3 2.15961 3.11131 -0.301169 0 0 -0
29 3 0.903356 4.20128 -2.67737 0 -0 0
30 3 1.01102 3.51045 -3.73659 0 -0 -0
31 1 4.86801 4.32633 -4.97971 0 0 -0
32 6 6.66364 4.38756 -6.68014 0 0 0
33 6 4.68729 4.65667 -6.87258 0 -0 -0
34 6 4.50336 2.55527 -4.19339 -0 0 -0
35 6 4.90348 2.22049 -6.3867 -0 -0 -0
36 6 4.38074 2.29285 -4.01236 -0 0 -0
37 6 3.51917 1.47638 -5.60368 0 -0 -0
38 6 2.64611 5.66491 -5.82858 -0 0 -0
39 6 2.88785 6.69283 -3.91703 -0 0 -0
40 6 3.101 3.11909 -3.15809 0 -0 0
65 6 0.706095 3.44334 -2.03718 0 0 0
66 6 1.05267 2.77433 -2.98689 0 -0 -0
67 6 5.72785 3.59544 -4.7241 0 -0 0
68 6 4.99449 5.35824 -4.60334 -0 -0 -0
69 1 7.4927 7.76988 12.6884 -0 0 -0
70 2 8.88013 8.168 11.739 0 0 -0
84 3 9.97449 6.37426 10.5892 -0 -0 0
88 4 7.99704 8.87853 12.3805 0 -0 -0
115 5 8.99476 6.06395 10.6893 0 -0 -0
120 5 9.28708 5.62289 12.3406 0 -0 0
122 6 8.3201 7.57333 12.127 -0 0 -0
41 6 2.66994 2.20948 -3.54465 -0 0 -0
76 3 12.1203 8.59775 10.1867 0 0 0
99 5 11.8866 8.15603 11.2119 -0 -0 -0
100 5 13.1253 8.13376 10.2046 -0 -0 -0
87 3 10.196 6.09748 12.1155 -0 0 0
114 5 10.2978 5.41013 10.2755 0 0 -0
119 5 10.9086 5.23766 12.1896 -0 0 -0
121 5 10.2979 6.64292 13.0434 -0 0 -0
86 3 7.2698 10.2814 12.6989 0 -0 -0
117 5 7.34517 10.6776 13.817 -0 -0 0
15 5 0.782852 -0.369946 -1.16185 0 0 0
75 3 9.4077 11.3207 11.1945 -0 0 -0
80 3 7.7535 11.2886 11.4406 0 0 0
93 5 9.54846 13.7858 11.4288 -0 -0 0
97 5 9.66928 10.3444 10.9526 -0 -0 0
107 5 7.31873 11.3037 10.372 -0 -0 0
108 5 7.10913 12.2056 11.4472 -0 -0 0
118 5 6.09673 10.2184 12.9501 -0 0 0
78 3 12.5255 10.1604 10.2102 -0 0 0
104 5 13.3973 10.4393 11.0492 0 0 0
43 6 -1.2694 -1.03139 -0.293756 -0 0 0
73 3 10.0007 12.8283 10.9443 -0 -0 0
94 5 10.8149 13.1313 11.698 0 0 0
98 5 10.1848 10.6545 11.68 -0 -0 -0
ITEM: TIMESTEP
1000
ITEM: NUMBER OF ATOMS
122
ITEM: BOX BOUNDS pp pp pp
0.0000000000000000e+00 2.0000000000000000e+01
0.0000000000000000e+00 2.0000000000000000e+01
0.0000000000000000e+00 2.0000000000000000e+01
ITEM: ATOMS id type xu yu zu vx vy vz
81 3 11.2688 7.68303 8.23521 0.00190769 0.000705658 -0.00176305
64 6 2.08714 2.33129 2.97495 -0.00225093 -0.00162412 0.00380301
109 5 11.1671 6.64625 7.73557 0.00301863 0.000914038 -0.0019514
77 3 12.6131 8.33202 8.12457 0.00199026 0.00151183 -0.00125992
101 5 13.3193 7.50239 7.9527 0.0031701 0.00225715 -0.00226997
102 5 12.613 8.78478 7.01565 0.0012364 0.00225573 -0.00127546
103 5 13.8404 10.3322 9.14726 8.83084e-06 0.00231964 -0.00138466
110 5 10.8074 8.30895 7.5569 0.0016228 0.000354685 -0.00197636
71 3 10.2734 13.2376 9.20566 -0.000125484 0.00112234 -0.000804241
91 5 9.66615 13.3246 8.18994 0.000275199 0.00147018 -0.000393744
95 5 9.11125 14.7589 6.2872 0.000102285 -0.000108318 -0.00147448
90 5 9.52213 13.1202 8.55153 0.00022115 0.00153458 -0.000397599
92 5 10.5524 14.8115 8.22004 0.000163518 0.000308374 -0.00178087
16 1 -0.420413 -2.00328 0.245132 0.000313304 -0.00426195 0.00428491
17 1 -1.20441 -1.6644 1.46496 0.000601881 -0.00573218 0.00618561
18 1 -2.60919 -2.31837 1.46843 0.000836583 -0.0036798 0.00418718
19 1 -2.59118 -3.64279 2.30321 -0.000677171 -0.00314678 0.00129939
20 1 -3.20774 -3.28419 3.64675 0.000715414 -0.00271825 0.000729014
21 1 -3.20815 -4.66564 4.41774 -0.00190406 0.000354088 0.00288101
22 1 -4.49045 -5.45007 4.02622 -0.00111225 -0.000231716 0.0029119
23 1 -5.60432 -5.11616 5.04986 -0.00227923 0.00053072 0.00264786
24 1 -5.30409 -5.73742 6.42036 -0.00182657 0.00412656 0.00333201
25 1 -6.38146 -6.61333 7.14939 -0.000813731 0.000963373 0.000860695
26 5 -4.95344 -7.45785 7.6075 -9.39473e-05 0.000704628 -0.00194142
42 6 -0.658353 -1.17723 -0.444848 -0.000656838 -0.000342417 0.00197523
44 6 -0.56526 -1.8893 2.35313 0.00416192 -0.00256594 0.00307585
45 6 -1.35794 -0.618966 1.39317 -0.00360942 -0.00353287 0.00506604
46 6 -2.98304 -1.53121 2.09357 -0.00309317 -0.00417082 0.00246244
47 6 -3.16462 -2.34285 0.476019 0.00556345 -0.00660268 0.0024225
48 6 -1.48161 -3.77311 2.30737 -0.000622226 -0.00342179 0.00216144
49 6 -3.14124 -4.58781 2.0803 -0.00212795 -0.00179021 0.00155732
50 6 -4.3381 -3.34078 3.61307 0.000363676 -0.00256775 0.00202113
51 6 -2.54702 -2.2639 3.73117 -0.00221652 -0.0016426 0.00299952
52 6 -2.35091 -5.08999 3.81248 -0.000932049 -0.000131539 0.00497334
53 6 -3.39775 -4.77319 5.56457 -0.00249751 0.00410492 0.00290825
54 6 -4.54087 -6.52094 4.47073 -0.00112415 0.000345971 0.0038224
55 6 -4.56866 -5.06509 2.91148 -0.00152868 -0.00216307 0.0021086
56 6 -5.20016 -4.06673 5.11925 -0.00116566 0.000258106 0.00253362
57 6 -6.74262 -5.49361 4.95689 -0.000900385 -0.003676 0.00348215
58 6 -5.53545 -4.91949 7.14126 -0.00582558 0.00429375 0.00220353
59 6 -4.2083 -6.06432 6.38642 -0.00154903 0.00556231 0.00543961
60 6 -6.64203 -7.79099 7.20954 0.000225933 0.000770324 0.000684098
61 6 -7.03532 -5.84498 7.84252 0.000613826 0.000163172 0.00303489
62 7 -6.10232 -8.22734 7.33628 -0.00122462 0.00201142 -0.00173113
72 3 10.5864 13.8149 7.85918 -0.000128905 0.000387016 -0.00111761
74 3 10.1418 14.2935 6.34688 -0.000235293 -0.000454005 -0.00141932
79 3 10.7009 13.2557 5.21072 -0.000474319 -0.000836497 -0.000784934
82 3 12.0741 11.5972 8.90421 -0.000201883 0.000751686 0.000792351
83 4 11.014 12.08 6.32967 0.000328033 -0.000175721 -0.000350845
85 4 11.4899 11.656 7.68562 0.00023138 0.000801658 0.000276169
89 5 10.8903 13.8446 8.86448 -0.000567593 0.00036155 -0.000633306
96 5 10.6335 15.2663 6.16168 -0.000404606 -0.000200148 -0.00189669
105 5 11.2895 13.5623 4.19149 -0.000388425 -0.000728384 7.74948e-05
106 5 9.93047 12.8818 4.43594 -0.0014231 -0.000822362 -0.000103097
111 5 11.7127 10.9399 8.4697 0.000303845 0.000965732 0.00019915
112 5 11.268 11.0246 8.6953 0.000150129 0.000616798 -0.00211254
113 5 10.5729 11.3159 5.77046 -0.00263295 -0.000468906 -1.18702e-05
116 5 11.0758 10.9809 8.07326 -0.000370475 0.000988769 -0.000659311
63 6 2.15421 -0.108255 3.1432 0.00101215 0.00164926 0.00527068
1 1 1.52708 -0.625555 -3.88909 -0.00704254 -0.00347527 0.00243778
2 1 2.18627 -0.631759 -2.49833 -0.00472232 -0.00100233 0.00173251
3 1 0.936025 -0.866156 -1.9038 -0.00475229 -0.00594133 0.00104804
4 2 -0.0195966 0.149637 -2.01068 -0.00437237 -0.00388996 0.00397687
5 3 -0.78326 0.968637 -1.10555 -0.00382196 -0.00624916 0.00444465
6 3 -1.49126 2.14022 -1.3735 -0.00604853 -0.00454873 0.004954
7 3 -1.49153 3.05297 -0.305395 -0.00401161 -0.00596438 0.00671488
8 3 -0.53881 2.76609 0.705112 -0.0018494 -0.00506659 0.00634126
9 3 0.769272 3.273 0.616061 -0.00319924 -0.00434725 0.00335605
10 4 1.05168 4.25086 -0.109252 -0.00656162 -0.00289103 0.00556269
11 3 1.7253 2.30496 0.901859 -0.00445065 -0.00444845 0.00453146
12 3 1.92714 1.51289 -0.140445 -0.00579354 -0.00304268 0.00371957
13 3 2.198 0.344633 0.0673406 0.00109625 -0.00148027 0.00832437
14 3 1.99654 -0.379377 1.05264 -0.00297561 -0.00180979 0.00464973
27 3 2.14595 0.343709 2.2322 -0.00171751 -0.00069113 0.00371515
28 3 2.07159 1.74975 2.13407 -0.00236552 -0.00148582 0.00349927
29 3 -0.607427 1.46582 1.22252 -0.00205657 -0.00568491 0.00563857
30 3 -0.617803 0.83125 0.186084 -0.00341815 -0.00648755 0.00436484
31 1 0.503008 0.444023 -3.44094 -0.00559708 -0.00318155 0.0046345
32 6 2.23382 -0.149504 -4.54562 -0.00999691 -0.00950552 -0.00104524
33 6 1.20576 -1.57624 -4.37664 -0.00421747 -0.00245189 0.00105127
34 6 2.16913 0.358236 -1.9895 -0.00795527 -0.00173985 0.00712965
35 6 2.98365 -1.37802 -2.34593 -0.00178046 0.00727469 0.00405188
36 6 1.52985 0.128229 -2.00115 -0.0114021 -0.00830607 0.00257982
37 6 0.508544 -1.59704 -2.57172 -0.00546708 -0.00351777 -0.000609077
38 6 -1.95107 2.31803 -2.27498 -0.00725084 -0.000874757 0.00634536
39 6 -2.12525 3.84917 -0.330489 -0.0034833 -0.00612017 0.0109056
40 6 1.29779 1.38386 -0.816275 -0.00306684 -0.00596661 0.0126613
65 6 0.0032796 0.602512 1.38026 0.00215982 -0.00530117 0.0087436
66 6 -0.0569133 0.178117 0.632823 0.00307624 -0.00681538 0.00412531
67 6 1.45696 0.995589 -3.50463 -0.00820293 -0.000402081 0.00827198
68 6 -0.260952 0.69363 -4.19158 -0.00157307 -0.000965481 0.00170603
69 1 7.85069 8.70585 11.3487 0.000270459 -0.000390524 -0.00267882
70 2 9.54047 9.17065 11.7049 0.000694377 0.000688778 -0.00312808
84 3 10.504 7.89156 9.52502 0.00225304 0.00169904 -0.00222295
88 4 8.42206 9.74218 11.7671 0.000244935 -0.000235387 -0.0022458
115 5 10.0504 8.71963 9.41309 9.30356e-05 0.000732733 -0.00268893
120 5 9.70676 6.6221 10.8725 0.0016903 0.00135002 -0.00525511
122 6 8.85013 8.56342 11.2865 0.000384449 6.13592e-05 -0.00258078
41 6 1.4041 0.2883 -0.328452 -0.00109329 -0.0073627 0.00545981
76 3 12.9615 9.08188 9.59515 0.00133309 0.00175008 -0.00124562
99 5 12.7904 8.69689 10.6549 0.00149667 0.00137411 -0.00148476
100 5 14.0081 8.74627 9.6044 0.00154654 0.0024519 -0.000657524
87 3 10.6241 6.96987 10.7978 0.00196298 0.000833065 -0.00319763
114 5 9.64389 7.36463 9.21259 0.00315427 0.000349084 -0.00257125
119 5 11.0892 5.96355 10.7 0.00210241 0.000831579 -0.0024231
121 5 10.7876 7.09573 11.8376 0.000365353 -0.000245937 -0.00314768
86 3 7.52225 10.933 12.2248 0.00225314 0.000594083 -0.000562749
117 5 7.31444 11.1964 13.3542 0.00338119 0.00172635 0.000188943
15 5 1.32491 -1.85757 0.592151 0.000317299 -0.00514321 0.00533015
75 3 10.1641 11.8383 11.1893 0.000893261 0.00100903 -0.00173447
80 3 8.37361 11.8108 11.1063 0.000873427 0.00238777 -0.000264622
93 5 10.2878 14.2552 11.4164 0.0023536 0.000478503 -0.000784661
97 5 11.039 11.1191 11.4505 0.000616504 0.00102863 0.000292751
107 5 7.86731 11.5672 10.0985 -0.000943181 0.00303669 0.000196151
108 5 7.81589 12.779 10.8652 0.00104272 0.00241726 -0.000188562
118 5 6.34344 10.7409 12.0897 0.00193957 0.00204656 -0.000302223
78 3 13.1306 10.6246 9.71627 0.000636947 0.00156191 -0.000253398
104 5 14.071 10.9042 10.5047 0.000259855 0.00280208 -0.000217438
43 6 -0.639422 -3.12941 0.000738894 0.00205194 -0.00525253 0.00683376
73 3 10.6253 13.3341 10.7958 0.00119639 0.000914153 -0.00122778
94 5 11.6431 13.6479 11.2235 0.00133239 0.00105236 -0.00136146
98 5 10.6085 11.4805 12.162 0.00217266 0.000318066 -0.00261439
ITEM: TIMESTEP
2000
ITEM: NUMBER OF ATOMS
122
ITEM: BOX BOUNDS pp pp pp
0.0000000000000000e+00 2.0000000000000000e+01
0.0000000000000000e+00 2.0000000000000000e+01
0.0000000000000000e+00 2.0000000000000000e+01
ITEM: ATOMS id type xu yu zu vx vy vz
64 6 0.34671 -0.0532687 5.42453 0.00297031 -0.00411721 0.00173757
9 3 -1.4617 1.20131 3.58106 -0.00207688 -0.00466355 0.00242963
10 4 -1.68432 2.41453 3.40663 -0.00561881 -0.00463639 0.00463135
11 3 -0.174415 0.66535 3.50383 -0.000443436 -0.0031022 0.00364992
12 3 0.217801 0.519763 2.23134 -9.67651e-05 -0.00228619 0.00293542
13 3 0.920468 -0.446775 1.93347 0.00231933 0.00285555 0.00335736
27 3 1.03294 -1.37814 3.91885 0.000624376 -0.00421161 -0.000668858
28 3 0.460442 -0.190871 4.41834 0.00131662 -0.00411374 0.00145401
114 5 10.3761 7.64288 8.06735 -0.00313068 0.000111829 -0.00515057
81 3 11.9756 8.28803 7.24529 0.00241957 0.00185659 -0.00204931
109 5 12.1842 7.25298 6.71814 0.0038214 0.000434804 -0.0013377
77 3 13.1791 9.14867 7.30183 0.00144194 0.00134869 -0.00305803
101 5 14.0293 8.59682 6.90757 0.00189817 0.000947122 -0.00320134
102 5 12.9624 9.85051 6.44572 -0.00119506 0.000628226 -0.00326993
110 5 11.7541 8.88292 6.4206 0.000311599 0.00172589 -0.0009863
7 3 -3.57761 0.454203 2.46701 -0.00324722 -0.00554357 0.00289521
8 3 -2.44634 0.251716 3.28887 -0.00310296 -0.00518625 0.00374118
29 3 -1.93938 -1.0226 3.15778 -0.00214736 -0.00272284 0.00193152
30 3 -1.82622 -1.16232 1.96303 -0.00105516 -0.00133819 0.00104374
39 6 -4.51561 0.696195 2.80424 -0.00278445 -0.00626812 0.00425144
65 6 -1.05426 -1.49448 2.98098 9.92813e-05 0.00159223 0.00442423
84 3 11.1085 8.21942 8.54833 -0.000574531 -0.00223026 -0.00488966
115 5 10.3326 8.48678 9.25313 0.0077704 0.00365023 0.00235853
76 3 13.5615 9.62659 8.76509 0.00138855 7.07041e-05 -0.00336253
100 5 14.6369 9.69493 8.68969 0.000770276 0.00485762 -0.00519876
91 5 9.78949 13.4266 7.90525 -0.000671936 -0.00106207 -0.000864255
95 5 9.49891 14.9309 5.97869 0.00151807 -0.00252138 -0.000130852
90 5 9.58153 13.2629 8.29534 -0.00256039 -0.00169057 -0.000906174
106 5 10.0692 13.0378 4.069 0.000952232 -0.00142282 -0.000406353
63 6 1.24349 -2.14807 4.54901 0.00159661 -0.00510111 -0.00198288
14 3 1.08388 -1.51916 2.53571 -0.00168322 -0.00377395 0.00142822
15 5 0.917289 -2.83226 1.48856 7.78726e-05 -0.00100881 0.000862342
103 5 13.4103 11.9201 8.44705 1.79353e-05 -0.00429 -0.000681063
71 3 10.3842 13.3427 8.87521 -0.00281626 -0.000185288 -0.000285031
92 5 11.1652 14.5672 7.75118 0.00239614 -0.00358169 0.000130537
16 1 -0.583972 -3.35353 0.670444 -0.00090371 0.00122907 0.000883088
17 1 -1.3389 -3.93026 1.76581 0.000691009 0.00436017 0.000378297
18 1 -2.8052 -3.8324 1.78197 -0.000506854 0.0031441 0.000345907
19 1 -3.21566 -4.96073 2.66808 0.00165668 0.00345924 -0.000491515
20 1 -2.54142 -4.83059 4.08671 0.00234167 -0.00205098 9.03529e-05
21 1 -2.84548 -5.89687 5.18433 -0.000279248 -0.000359848 -0.00124406
22 1 -4.22569 -6.44056 4.77504 -0.000251248 4.48454e-05 0.00056684
23 1 -5.40296 -5.37535 5.15954 -0.00170589 6.19592e-05 -0.000203331
24 1 -5.10051 -4.35954 6.33197 -0.00104936 -0.00481365 -0.0022075
25 1 -5.17626 -5.22443 7.56015 0.00343975 -0.00405851 0.00344614
26 5 -3.70246 -5.13278 8.59834 0.0045418 0.0112133 0.00103334
44 6 -0.839556 -4.92721 1.952 0.000446637 0.00265967 -0.00946883
45 6 -1.43838 -3.19354 2.55846 -0.00143192 -0.00140891 0.00421497
46 6 -2.71224 -3.03169 2.5593 0.00526645 -0.000490707 0.00148172
47 6 -3.26042 -3.76693 0.710682 0.00472045 0.00261782 -0.00418466
48 6 -2.78273 -5.67293 1.93239 -0.00946345 0.00615639 -0.00743188
49 6 -4.31712 -5.12897 2.90779 0.0068718 -0.00214333 5.28653e-06
50 6 -3.37403 -4.39314 4.61046 -0.00115776 -0.00346441 -0.00177266
51 6 -1.43956 -4.31 3.94857 0.00285892 0.000542631 0.00779835
52 6 -1.93535 -6.55057 4.9549 0.000957725 0.00201026 -0.00552244
53 6 -3.19312 -5.5581 6.26331 0.00626207 -0.00930566 -0.010363
54 6 -4.45852 -7.25801 5.51406 -0.00766455 -0.00188677 -0.00722002
55 6 -4.09154 -6.68095 3.6663 -0.00142373 0.00808906 -7.23738e-05
56 6 -5.25073 -4.58946 4.29741 -0.00853584 0.00635384 0.00157355
57 6 -6.454 -5.96382 5.45485 0.0020356 0.00626497 0.00319794
58 6 -5.97647 -3.68866 6.5052 -0.0022986 -0.0108121 0.0072904
59 6 -4.05306 -3.92847 6.13329 -0.0129779 0.00118746 -0.00802865
60 6 -4.80896 -6.10693 7.05137 -0.00176913 0.00660037 0.00751209
61 6 -6.30175 -5.21779 8.0745 0.00690754 0.000275309 0.00983919
62 7 -3.18846 -6.30646 8.09294 0.0180059 0.0148083 0.00642243
72 3 10.7972 13.6363 7.45814 -0.00080497 -0.00150066 -0.000272175
74 3 10.4472 14.2853 6.00182 0.00188761 -0.00298307 -0.00124381
79 3 10.8187 13.0779 4.95817 0.00071572 -0.00352487 -0.00127434
82 3 11.8923 11.4683 8.39064 0.00316741 0.0021719 -0.00528439
83 4 10.7213 11.8373 6.063 -0.00304556 -0.00346413 -0.00221885
85 4 11.1331 11.3366 7.39118 -0.00165733 -0.00142157 -0.00186824
89 5 11.0443 13.8215 8.41254 -0.00460277 0.000451876 -0.000277887
96 5 11.0987 15.1519 5.73762 0.00300331 -0.00443658 -0.0015251
105 5 11.6808 13.1856 4.14142 0.00286869 -0.00433005 0.000956922
111 5 11.4273 10.9522 8.79668 0.00391563 0.00360095 0.00372368
112 5 11.0605 10.9476 8.35678 0.00379999 0.00114139 -0.000297189
113 5 9.98243 11.2623 5.61991 -0.00723252 -0.00285434 0.00107961
116 5 10.6125 10.8284 7.971 -0.000452316 -0.000643696 -0.000771073
66 6 -1.04574 -1.63352 2.08191 0.000426217 -0.00384666 0.00242837
78 3 13.2056 11.0643 9.07952 -0.00175067 -0.00203552 0.000871439
43 6 -0.325765 -4.19657 -0.10904 0.000653904 0.00141181 -0.000591083
31 1 -0.98992 0.468763 -1.40738 -0.00139058 0.00168498 0.0060111
34 6 0.730363 0.540993 0.0890237 -0.00356864 -0.00180724 0.00551686
40 6 -0.35671 0.458385 1.49495 0.00211617 -0.00871087 0.00529539
67 6 -0.419296 1.34995 -1.08245 -0.00769428 0.00291815 0.0077209
69 1 8.21862 8.52227 11.1996 -0.00119039 0.00310768 -0.00654082
70 2 9.93641 9.43839 11.6335 0.00155934 0.00273531 0.00304856
88 4 8.72521 9.70196 11.5111 0.00136912 0.00062296 0.000140442
120 5 10.6065 8.33789 9.54348 0.00403077 -0.00658803 0.00776005
122 6 9.00987 7.98657 11.0355 -0.00316204 -0.00101178 -0.00331108
41 6 0.100203 -0.444825 1.48924 0.00796619 -0.021382 0.0051035
5 3 -2.14344 -0.516703 0.861496 0.00020157 -0.00121886 0.00404325
6 3 -3.30087 0.245583 1.09667 -0.00324935 -0.00421032 0.00220885
38 6 -3.91146 0.599787 0.350749 -0.00529354 -0.00375344 0.00384731
68 6 -1.84898 0.704405 -2.04879 0.00254573 0.00612339 0.00100157
99 5 13.5823 8.93282 9.67374 0.00344009 -0.00182754 -0.00624037
87 3 11.2808 7.48235 9.65915 0.00405104 -0.00127257 -0.00354633
119 5 10.9774 6.41569 9.46535 -0.015473 0.00733531 -0.00200144
121 5 11.2611 7.65606 10.6276 0.00220851 0.00678736 -0.00343784
1 1 0.378401 0.321369 -2.08809 -0.00243645 0.00479171 0.00468009
2 1 1.11186 -0.0471685 -0.799174 -0.000721182 0.00575895 0.00406207
3 1 0.144302 -0.990213 -0.473298 0.000691592 0.00210908 0.000758458
32 6 0.675823 1.31319 -2.28962 -0.00337787 0.0046176 -0.0010528
33 6 0.505768 -0.27789 -3.01521 0.000397947 0.015012 0.00241179
35 6 2.16555 -0.374405 -0.885712 0.000169885 0.0082675 0.00530724
36 6 0.304625 0.110128 -0.0908523 0.00603357 3.26396e-05 0.0103531
37 6 0.0546877 -1.44176 -1.4674 -8.31592e-06 0.00262753 0.000251333
86 3 7.71568 10.8782 11.8746 -0.000506041 -0.00126419 0.000535611
117 5 7.34494 11.0105 12.986 -0.00478791 -0.00238939 -0.000338197
80 3 8.5126 12.0604 11.001 4.25691e-05 -4.89634e-05 0.00274685
107 5 7.87702 12.0473 10.0536 0.000214954 0.00236661 0.0029721
108 5 8.06733 13.1063 10.8809 0.00121869 -0.000566841 0.00397586
118 5 6.57121 10.652 11.6102 0.000717765 -0.00308155 -0.00274678
42 6 -1.17925 -2.4928 0.452297 0.00722447 0.00120686 0.000171829
4 2 -1.17895 -0.522323 -0.246912 0.000350002 1.28043e-05 0.00270556
75 3 10.2776 12.1045 11.0194 -0.00059315 0.00190293 0.00197487
93 5 10.6704 14.5223 10.9583 -1.95816e-05 0.00134703 -0.00076508
97 5 11.2147 11.5082 11.438 -0.000341738 0.00374459 0.00399771
104 5 14.122 11.4374 9.82869 -0.000275574 0.00187857 -0.00325288
73 3 10.8538 13.5097 10.438 -0.00132379 0.000794529 -7.83553e-05
94 5 11.9208 13.7681 10.8126 -0.000805089 -0.000521832 0.000326679
98 5 10.5288 11.8811 12.0629 -0.00193652 0.00380602 0.00208431
ITEM: TIMESTEP
3000
ITEM: NUMBER OF ATOMS
122
ITEM: BOX BOUNDS pp pp pp
0.0000000000000000e+00 2.0000000000000000e+01
0.0000000000000000e+00 2.0000000000000000e+01
0.0000000000000000e+00 2.0000000000000000e+01
ITEM: ATOMS id type xu yu zu vx vy vz
12 3 -0.762879 -0.11457 4.05049 -0.00501502 0.0023027 0.00299969
34 6 -0.69666 1.13771 2.26274 -0.000377178 0.000435057 0.0168371
9 3 -2.13096 -1.12365 5.75223 -0.00378255 -0.00319692 0.000448587
10 4 -2.55363 -1.0815 6.9228 0.000948601 -0.00626444 0.00418918
11 3 -0.875436 -0.721359 5.26166 -0.00408835 -0.00073013 0.000965396
114 5 10.1322 8.01854 8.30495 0.000835507 0.00111604 -0.000440023
81 3 11.9555 8.39838 7.14159 -0.000244857 0.000643283 -0.000716274
109 5 11.9713 7.36224 6.59149 0.000948907 0.00055772 -6.17418e-05
77 3 13.0656 9.32566 6.80751 -0.000185558 0.000760069 -0.000485561
101 5 13.7752 8.80217 6.19186 7.20684e-05 0.00151313 -0.000506987
102 5 12.7156 10.0248 6.04105 6.21918e-05 0.000676531 -0.0004074
110 5 11.5862 8.99266 6.38299 -0.000788241 3.24598e-05 -0.000227361
7 3 -3.97123 -2.07589 4.16977 -0.000840982 -0.00119275 0.000822919
8 3 -2.71151 -1.92028 4.77912 -0.000533884 -0.00732027 0.00422165
39 6 -4.67567 -2.7349 4.57387 0.00164021 -0.00296279 0.000142474
84 3 11.0813 8.48046 8.40748 0.00038167 0.000890802 -0.000633798
115 5 11.2292 8.74399 9.45075 0.000198367 0.000602263 -0.000374333
76 3 13.8381 9.72035 8.05725 -0.000101054 0.00117691 -0.000623081
100 5 14.8176 10.0185 7.67941 -0.000292186 0.00177701 0.000354648
40 6 -1.41748 -0.106758 3.34205 0.00120267 0.00281493 -0.00431971
120 5 11.1934 8.66719 9.55996 0.00122358 0.000916099 0.000206544
6 3 -4.0444 -1.49483 2.86325 -0.003651 0.00317256 0.00468649
38 6 -4.94842 -1.23377 2.4577 -0.000976891 0.0117395 0.00548407
99 5 14.0922 8.81262 8.67054 0.000579875 0.00135316 -0.000555569
87 3 11.7002 7.82377 9.45217 0.000574229 0.000831537 -0.000625592
119 5 11.2375 6.82518 9.66714 0.00166269 0.000151383 0.00031538
64 6 0.508407 -1.60104 6.58028 0.0057882 0.00820434 0.00198752
13 3 0.185345 -0.417808 3.31507 -0.00104091 -0.0013372 0.00698019
27 3 1.17758 -1.84249 4.57448 0.00455707 0.00691686 0.0039818
28 3 0.332267 -1.34716 5.60609 0.00157221 0.00462863 0.00179996
91 5 9.9484 13.6472 7.64869 -0.00096095 0.000575999 -0.000416895
95 5 9.68287 14.8549 5.55245 -0.000899319 0.000265299 -0.000112572
90 5 9.65443 13.4726 8.0438 -0.001353 5.64516e-05 -0.000456513
63 6 1.87638 -2.55745 4.7712 0.00790276 0.0117128 0.0126222
14 3 0.919175 -1.45086 3.25556 0.000886066 0.00349691 -0.00131087
15 5 0.98387 -2.28049 1.76277 -0.0011584 -0.00172543 0.000192878
113 5 9.76878 11.3262 5.66921 0.000575141 0.000558428 -0.00133429
41 6 -0.603914 -0.585131 2.91126 -0.00542009 0.00185156 -8.14556e-05
29 3 -1.8215 -2.48739 3.96286 0.0012774 -0.00615244 0.00304565
30 3 -2.00039 -2.16364 2.85547 -0.000422575 -0.00221939 0.00568142
65 6 -0.873494 -2.51247 3.72061 0.00454545 -0.0022708 0.00362938
106 5 10.2705 12.8204 3.82419 0.00079508 0.000550047 -0.00147339
103 5 13.4352 11.8869 8.29009 0.000369595 0.00156536 -0.000860879
71 3 10.4307 13.5281 8.63372 -0.00112971 2.09667e-05 -0.000451658
92 5 11.4505 14.6283 7.51692 -0.00188228 0.00170607 -0.00138667
16 1 -0.374164 -3.02927 0.852283 -0.00100148 -0.00108284 -0.00102709
17 1 -0.858864 -4.21677 1.64502 0.0011512 0.00105711 -0.000197226
18 1 -2.31773 -4.6539 1.79449 0.0033284 0.00252472 1.56477e-05
19 1 -2.03892 -5.78536 2.72444 0.00171415 0.00527102 0.000686095
20 1 -1.53522 -5.3834 4.12742 0.00400842 0.0023095 0.00206201
21 1 -2.18857 -6.17857 5.22386 0.0039624 -0.00548058 -0.00480747
22 1 -3.38452 -7.07873 4.83512 0.000668079 -0.00350983 -0.00555388
23 1 -4.68354 -6.32314 4.37632 0.00042151 -0.00105841 0.00141954
24 1 -4.88767 -4.992 4.90916 0.00619018 -0.000683076 0.00323663
25 1 -4.94609 -4.85626 6.46582 0.00432937 -0.006488 0.000931376
26 5 -4.07401 -3.37766 7.00861 0.00220672 -0.00862817 0.0017028
44 6 -0.101292 -4.96416 1.28963 0.00277394 0.00149192 0.00142534
45 6 -0.842426 -3.93254 2.6491 0.00127502 0.00927014 -0.00812096
46 6 -2.92258 -4.18295 2.66044 0.00244231 0.00448321 -0.00239125
47 6 -2.71935 -4.93083 0.711897 0.00571091 -0.00218087 0.00098905
48 6 -1.22771 -6.37578 2.22572 -0.00119173 0.00790029 -0.00211058
49 6 -2.99482 -6.272 2.82467 0.00138988 0.00890194 0.00111954
50 6 -2.22309 -4.68908 4.76298 0.00906693 0.0025473 0.00948547
51 6 -0.342448 -5.13617 3.96281 0.00398922 0.00273161 -0.00456687
52 6 -1.26933 -6.72411 5.60356 0.00289493 -0.00530821 -0.00496922
53 6 -2.77244 -5.27265 5.69914 0.002419 -0.00933225 0.00242533
54 6 -3.79887 -7.51637 5.77511 0.000412714 -0.0104177 -0.00918249
55 6 -2.88924 -7.64486 3.94474 -0.00393152 -0.00148837 -0.01159
56 6 -4.27006 -5.4683 3.67917 -0.0102125 -0.000555437 -0.0033762
57 6 -5.79579 -6.86369 4.47153 0.00216084 8.91343e-06 0.00446552
58 6 -5.97629 -4.90644 4.55805 0.00508401 0.00297615 0.00650406
59 6 -3.93581 -4.58847 4.30185 0.00760204 -0.00883644 -0.00187005
60 6 -4.17382 -5.57967 6.74157 0.00214866 -0.0124045 -0.00171382
61 6 -6.07037 -4.99661 6.95282 0.00168939 -0.00302508 -0.0022786
62 7 -2.75937 -3.70302 6.8033 0.00345005 -0.00635294 -0.00544323
72 3 10.9615 13.7518 7.22689 -0.000751515 0.000589315 -0.000151278
74 3 10.6123 14.2079 5.68832 -0.000984431 -0.000518097 -0.000158295
79 3 10.9586 12.9278 4.74874 0.000126152 0.000477996 -0.000984277
82 3 12.0549 11.5685 8.1084 -0.000490241 0.000992691 -0.000742383
83 4 10.6511 11.8157 5.96808 -0.000119158 0.00105027 -0.00121252
85 4 11.0675 11.4009 7.33382 -0.00028058 0.000899737 -0.00118649
89 5 11.1633 13.9834 8.19761 -0.00118725 0.000492867 -0.000112574
96 5 11.2827 15.0102 5.34511 -0.000371877 -0.00128865 0.000378526
105 5 11.9098 13.0222 4.01303 0.000643598 0.000185849 0.000177028
111 5 11.84 11.3467 8.85486 -0.000213012 0.000298533 -0.00108979
112 5 11.2002 11.168 8.30183 -0.000599427 0.000407517 -0.00112493
116 5 10.6062 11.0017 8.01595 0.000228625 0.00067885 -0.000823295
66 6 -1.07116 -2.26592 2.80853 -0.000279425 0.00312953 -0.00415823
78 3 13.3191 10.9526 8.78262 0.000354699 0.00150348 -0.00135882
5 3 -2.78233 -1.36693 2.21913 -0.00418017 -0.00237215 0.00342882
42 6 -1.14539 -2.3004 0.974894 -0.00579985 -0.00730539 -0.0034594
104 5 14.3556 11.3449 9.37269 0.000668957 0.00146892 -0.000949204
69 1 8.64764 8.58221 10.9506 0.000587468 0.00078574 0.000368694
70 2 10.172 9.65562 11.5612 0.000231975 0.00105908 -0.000996102
88 4 8.97461 9.81612 11.2012 0.000136745 0.00119899 -0.00121626
122 6 9.55224 8.23897 10.9557 0.000940158 0.00138134 8.23921e-05
1 1 -1.42926 1.70351 0.324931 0.000469014 -0.00507693 0.00253693
32 6 -1.61616 2.61928 0.808822 0.000258916 -0.00701323 -0.00171038
36 6 -0.984469 0.632004 1.80251 -0.0135768 -0.0045529 -0.00145829
31 1 -2.57471 0.945434 0.964508 0.000333522 -0.00183527 0.0020298
67 6 -2.35571 1.70746 1.74091 -0.00413947 0.00661717 0.00404714
68 6 -3.57833 1.01844 0.529771 0.004174 0.00508589 -0.00351758
121 5 11.8691 8.34647 10.3235 0.00141587 0.000821512 -0.000637939
2 1 -0.315403 1.16107 1.22215 -0.00161243 -0.0045549 0.00243199
3 1 -0.738415 -0.145689 0.937821 -0.00339813 -0.00265415 0.00443845
33 6 -1.29454 1.83048 -0.782155 0.000463362 -0.0134482 -0.000397087
35 6 0.708214 1.4793 0.965226 -0.0050061 -0.0108027 -0.00114394
37 6 -0.860716 -0.0611902 -0.137861 -0.000658539 0.00160372 0.0129695
86 3 7.73159 10.7939 11.3283 -0.000631608 0.000274221 -0.00110151
117 5 7.09482 10.7629 12.3222 -0.00039062 0.000483102 -0.00100229
80 3 8.38279 12.1713 10.6508 -0.000224691 -0.00012682 -0.000686198
107 5 7.79297 12.3211 9.68794 -0.000726556 -7.12733e-05 -0.000290791
108 5 7.87469 13.1624 10.6967 -0.000727291 -0.000491584 -0.00133751
118 5 6.7639 10.3397 10.8197 5.29004e-05 -0.000673371 -0.00147369
43 6 0.0176307 -3.35986 -0.213852 -0.00618027 -0.000369705 -0.00315748
4 2 -2.09713 -0.456021 1.31688 -0.00270439 -0.00304026 0.00540043
75 3 10.0861 12.3848 10.8111 -0.000248496 0.000573156 -0.00031027
93 5 10.3408 14.8459 10.6071 -0.00047491 0.000498924 -0.00011257
97 5 10.9795 11.946 11.3972 7.66453e-05 0.000981684 -0.00106324
73 3 10.6663 13.8053 10.2174 -0.000703315 0.000500797 -0.000598512
94 5 11.6845 14.095 10.6825 -0.000682157 0.000798346 -0.000773101
98 5 10.1438 12.2016 11.9122 -0.000525927 0.00059397 1.87718e-05
ITEM: TIMESTEP
4000
ITEM: NUMBER OF ATOMS
122
ITEM: BOX BOUNDS pp pp pp
0.0000000000000000e+00 2.0000000000000000e+01
0.0000000000000000e+00 2.0000000000000000e+01
0.0000000000000000e+00 2.0000000000000000e+01
ITEM: ATOMS id type xu yu zu vx vy vz
35 6 1.25264 0.188411 4.1445 0.00626464 -0.0110403 0.00109431
34 6 -0.707213 -0.0274808 4.3992 0.00813987 -0.00354212 0.00216361
114 5 11.0439 8.46826 7.80736 0.0010792 -0.000274347 0.000233592
81 3 12.8044 9.18565 6.79301 0.00125461 -7.26228e-05 7.60027e-07
109 5 12.9458 8.20926 6.16026 0.00119816 -0.00026033 -0.000323271