ITEM: TIMESTEP
0
ITEM: NUMBER OF ATOMS
122
ITEM: BOX BOUNDS pp pp pp
0.0000000000000000e+00 2.0000000000000000e+01
0.0000000000000000e+00 2.0000000000000000e+01
0.0000000000000000e+00 2.0000000000000000e+01
ITEM: ATOMS id type xu yu zu vx vy vz
63 6 -0.678292 1.15184 0.388785 0 0 0
76 3 11.2016 8.18585 9.13373 0 0 0
77 3 11.3874 7.08492 9.0751 0 0 0
78 3 12.0076 9.10382 8.09559 0 0 0
81 3 10.6122 6.13565 9.94569 0 0 0
99 5 11.0593 7.84189 9.17187 0 0 0
100 5 10.5079 8.81576 9.60491 0 0 0
101 5 11.9959 6.49685 8.40143 0 0 0
102 5 11.3898 7.41284 8.89491 0 0 0
103 5 12.5854 8.54705 7.58948 0 0 0
104 5 12.0799 9.43976 7.98643 0 0 0
110 5 10.7368 5.16573 9.79167 0 0 0
71 3 9.77989 13.1696 9.97092 0 0 0
92 5 9.82425 14.969 9.58323 0 0 0
16 1 -0.749029 -1.06462 0.849549 0 0 0
17 1 -1.09309 -2.46624 1.34664 0 0 0
18 1 -2.1396 -2.34116 2.50387 0 0 0
19 1 -2.48366 -3.74277 3.00096 0 0 0
20 1 -3.60011 -3.62571 4.08717 0 0 0
21 1 -3.94417 -5.02732 4.58426 0 0 0
22 1 -5.06062 -4.91026 5.67046 0 0 0
23 1 -5.40468 -6.31188 6.16756 0 0 0
24 1 -6.53633 -6.14496 7.12229 0 0 0
25 1 -6.93513 -7.60445 7.67983 0 0 0
26 5 -8.05835 -7.36692 9.0407 0 0 0
42 6 -1.11664 -0.415379 1.13824 0 0 0
43 6 -0.878092 -0.682126 0.933449 0 0 0
44 6 -0.725471 -3.11548 1.05796 0 0 0
45 6 -0.964024 -2.84873 1.26275 0 0 0
46 6 -2.57716 -1.69993 2.72154 0 0 0
47 6 -2.3386 -1.96668 2.51675 0 0 0
48 6 -2.18598 -4.40003 2.64125 0 0 0
49 6 -2.42453 -4.13329 2.84604 0 0 0
50 6 -4.03767 -2.98449 4.30483 0 0 0
51 6 -3.79911 -3.25123 4.10004 0 0 0
52 6 -3.64649 -5.68459 4.22455 0 0 0
53 6 -3.88504 -5.41784 4.42934 0 0 0
54 6 -5.44343 -4.21117 5.82768 0 0 0
55 6 -5.20488 -4.47791 5.6229 0 0 0
56 6 -5.107 -6.96914 5.80785 0 0 0
57 6 -5.34555 -6.70239 6.01264 0 0 0
58 6 -6.90394 -5.49572 7.41098 0 0 0
59 6 -6.66539 -5.76247 7.20619 0 0 0
60 6 -6.56751 -8.25369 7.39115 0 0 0
61 6 -6.80607 -7.98695 7.59593 0 0 0
62 7 -8.50274 -8.67684 9.20384 0 0 0
72 3 10.4085 14.2233 9.23295 0 0 0
74 3 11.1265 13.751 8.4384 0 0 0
79 3 11.8793 12.7306 7.8123 0 0 0
82 3 11.8305 10.3438 8.12987 0 0 0
83 4 12.7372 12.2743 7.15979 0 0 0
85 4 12.7217 11.2199 7.29422 0 0 0
89 5 10.1235 12.4312 9.57512 0 0 0
91 5 10.5751 14.7249 8.87143 0 0 0
95 5 10.844 13.3226 8.76498 0 0 0
96 5 11.4901 14.6544 7.97829 0 0 0
105 5 12.1618 13.159 7.48572 0 0 0
106 5 11.5157 11.8272 8.27241 0 0 0
111 5 11.0973 10.866 8.79296 0 0 0
112 5 11.7582 10.0078 8.23903 0 0 0
113 5 13.1996 12.8949 6.35285 0 0 0
116 5 13.1312 11.0063 6.63343 0 0 0
1 1 6.80767 6.14577 -7.40615 0 0 0
2 1 6.97588 4.76678 -7.41607 0 0 0
3 1 6.02566 4.28116 -6.4255 0 0 0
4 2 5.54619 5.52255 -5.67114 0 0 0
5 3 4.44968 5.20977 -4.97843 0 0 0
6 3 3.79756 6.20692 -4.44887 0 0 0
7 3 2.91087 5.9182 -3.5431 0 0 0
8 3 2.52965 4.73677 -3.03428 0 0 0
9 3 1.40239 4.45529 -2.17402 0 0 0
10 4 1.14591 5.41138 -1.32543 0 0 0
11 3 1.2989 3.04644 -1.63141 0 0 0
12 3 2.05172 2.02601 -2.2575 0 0 0
13 3 1.81715 0.740148 -1.8813 0 0 0
14 3 0.829763 0.474711 -0.878997 0 0 0
27 3 0.122897 1.41398 -0.288987 0 0 0
28 3 0.357468 2.69985 -0.665193 0 0 0
29 3 3.18177 3.73962 -3.56384 0 0 0
30 3 4.06847 4.02834 -4.46961 0 0 0
31 1 5.70001 6.40186 -6.34431 0 0 0
32 6 7.11855 6.21495 -7.72011 0 0 0
33 6 7.10777 6.85223 -7.78145 0 0 0
34 6 7.38746 4.81269 -7.82655 0 0 0
35 6 7.4442 4.09426 -7.80129 0 0 0
36 6 5.99049 3.72504 -6.32806 0 0 0
37 6 5.83505 3.69044 -6.17109 0 0 0
38 6 3.99056 7.12554 -4.88347 0 0 0
39 6 2.32667 6.66386 -3.19281 0 0 0
40 6 2.65829 2.21424 -3.01688 0 0 0
65 6 2.8489 2.80495 -3.27129 0 0 0
66 6 4.51279 3.26664 -4.96194 0 0 0
67 6 5.48103 6.17036 -6.10253 0 0 0
68 6 5.45947 7.44491 -6.22523 0 0 0
69 1 6.61474 8.00299 14.2345 0 0 0
70 2 7.01152 9.20297 13.4266 0 0 0
84 3 9.6228 6.64652 10.8623 0 0 0
86 3 7.34036 9.61862 12.6335 0 0 0
87 3 8.84758 5.69724 11.7329 0 0 0
88 4 6.62905 8.93466 12.9888 0 0 0
114 5 9.30352 7.54252 10.9347 0 0 0
115 5 9.57923 7.05559 10.7182 0 0 0
117 5 7.85462 8.86494 12.2122 0 0 0
119 5 8.70532 5.35329 11.771 0 0 0
120 5 8.98103 4.86635 11.5545 0 0 0
121 5 8.09036 6.13025 12.2888 0 0 0
122 6 5.67202 7.5337 14.0894 0 0 0
64 6 -0.272688 3.52666 -0.278823 0 0 0
109 5 10.4611 5.65266 10.0082 0 0 0
15 5 0.638755 -1.22022 -0.358692 0 0 0
41 6 2.26148 -0.0215519 -2.37363 0 0 0
73 3 9.26961 12.3707 10.5636 0 0 0
75 3 8.64105 11.317 11.3016 0 0 0
80 3 7.96892 10.6723 11.8955 0 0 0
90 5 9.1781 13.6372 10.3699 0 0 0
93 5 8.74015 13.1742 10.8535 0 0 0
94 5 9.73152 11.887 10.0226 0 0 0
97 5 8.03926 11.7846 11.7006 0 0 0
98 5 8.98468 10.5786 10.9058 0 0 0
107 5 8.50077 10.1967 11.4255 0 0 0
108 5 7.55535 11.4027 12.2203 0 0 0
118 5 6.9092 10.071 13.007 0 0 0
ITEM: TIMESTEP
25
ITEM: NUMBER OF ATOMS
122
ITEM: BOX BOUNDS pp pp pp
0.0000000000000000e+00 2.0000000000000000e+01
0.0000000000000000e+00 2.0000000000000000e+01
0.0000000000000000e+00 2.0000000000000000e+01
ITEM: ATOMS id type xu yu zu vx vy vz
63 6 -0.620294 1.40551 0.307583 0 0 0
76 3 11.545 8.25805 9.3402 0 0 0
77 3 11.7839 6.89185 9.19044 0 0 0
78 3 11.8847 8.90979 8.07345 0 0 0
81 3 10.7252 6.06046 9.76559 0 0 0
99 5 10.6295 7.84689 9.14319 0 0 0
100 5 11.2204 8.63103 10.1908 0 0 0
101 5 12.0644 6.20787 8.43394 0 0 0
102 5 11.0917 7.08542 8.304 0 0 0
103 5 12.9477 8.7882 7.60201 0 0 0
104 5 12.4727 9.63682 8.14868 0 0 0
110 5 11.3822 5.20931 9.3863 0 0 0
71 3 9.59436 13.2229 9.63113 0 0 0
92 5 10.0252 15.287 9.46475 0 0 0
16 1 -0.633119 -1.25685 0.785909 0 0 0
17 1 -1.26083 -2.3959 1.35278 0 0 0
18 1 -1.93912 -2.3651 2.65533 0 0 0
19 1 -2.40278 -3.67244 3.18563 0 0 0
20 1 -3.42931 -3.6546 4.20411 0 0 0
21 1 -3.77695 -4.95712 4.77412 0 0 0
22 1 -4.94203 -4.98991 5.54358 0 0 0
23 1 -4.86567 -6.12508 6.42177 0 0 0
24 1 -5.72025 -5.94977 7.59991 0 0 0
25 1 -5.71404 -7.34193 8.43221 0 0 0
26 5 -6.63112 -7.52654 9.99948 0 0 0
42 6 -1.27279 -0.546847 1.31911 0 0 0
43 6 -0.785835 -0.332627 0.819221 0 0 0
44 6 -0.550987 -3.03337 0.888119 0 0 0
45 6 -0.981947 -3.32374 1.39291 0 0 0
46 6 -2.70944 -1.7448 3.02761 0 0 0
47 6 -2.40662 -1.60896 2.13102 0 0 0
48 6 -1.92673 -4.34038 2.52498 0 0 0
49 6 -2.85404 -4.53924 2.86841 0 0 0
50 6 -4.14036 -2.96799 4.59056 0 0 0
51 6 -3.81186 -2.92046 3.61277 0 0 0
52 6 -3.38416 -5.64246 4.08179 0 0 0
53 6 -4.30413 -5.80397 4.50473 0 0 0
54 6 -5.59552 -4.28994 6.12307 0 0 0
55 6 -5.21449 -4.12636 5.22326 0 0 0
56 6 -4.85772 -6.98474 5.67017 0 0 0
57 6 -5.53178 -6.75475 6.2411 0 0 0
58 6 -6.55727 -5.23855 7.61532 0 0 0
59 6 -6.20852 -5.99952 6.67546 0 0 0
60 6 -5.81427 -8.22197 7.6837 0 0 0
61 6 -6.58572 -7.58515 8.51576 0 0 0
62 7 -7.60921 -8.39287 9.76935 0 0 0
72 3 10.5918 14.2824 9.48914 0 0 0
74 3 11.3599 14.0412 8.34638 0 0 0
79 3 11.4735 12.9041 7.35658 0 0 0
82 3 11.5629 10.2925 8.42927 0 0 0
83 4 12.2414 12.1981 6.70626 0 0 0
85 4 12.372 10.9851 7.17465 0 0 0
89 5 10.0115 12.4069 9.61928 0 0 0
91 5 10.397 15.0472 8.80341 0 0 0
95 5 10.5257 14.3401 7.76111 0 0 0
96 5 11.1836 14.9946 8.09465 0 0 0
105 5 11.4201 13.1034 6.35421 0 0 0
106 5 10.8246 12.7998 6.57569 0 0 0
111 5 10.6079 10.3837 8.05433 0 0 0
112 5 11.3917 10.3389 7.74528 0 0 0
113 5 12.3612 12.4208 5.6763 0 0 0
116 5 12.9784 11.0457 6.00282 0 0 0
1 1 6.58066 6.06645 -7.16386 0 0 0
2 1 6.62935 4.62933 -7.06055 0 0 0
3 1 5.52117 4.38477 -6.39608 0 0 0
4 2 5.41368 5.47186 -5.50779 0 0 0
5 3 4.3817 5.17351 -4.82648 0 0 0
6 3 3.75468 6.25889 -4.45269 0 0 0
7 3 2.83228 5.99656 -3.51796 0 0 0
8 3 2.42624 4.83829 -2.97309 0 0 0
9 3 1.52664 4.43702 -2.06108 0 0 0
10 4 1.1109 5.3887 -1.38854 0 0 0
11 3 1.32644 3.08592 -1.71022 0 0 0
12 3 1.99465 1.9316 -2.22287 0 0 0
13 3 1.83109 0.722275 -1.9159 0 0 0
14 3 0.89603 0.44674 -0.918925 0 0 0
27 3 0.147217 1.49403 -0.35188 0 0 0
28 3 0.368991 2.79612 -0.722568 0 0 0
29 3 3.07241 3.94627 -3.4771 0 0 0
30 3 3.90664 4.00781 -4.30906 0 0 0
31 1 5.18574 6.10697 -6.8282 0 0 0
32 6 7.02667 5.95587 -8.16385 0 0 0
33 6 6.39358 6.88577 -7.721 0 0 0
34 6 6.03357 4.54932 -7.8667 0 0 0
35 6 7.17541 3.84751 -7.60579 0 0 0
36 6 6.14849 3.64076 -6.39592 0 0 0
37 6 5.61651 3.52015 -5.90034 0 0 0
38 6 3.94575 7.14995 -4.84201 0 0 0
39 6 2.38419 6.72982 -3.27437 0 0 0
40 6 2.71232 1.66958 -2.98669 0 0 0
65 6 2.87306 3.25396 -3.44004 0 0 0
66 6 3.92597 3.00752 -4.32706 0 0 0
67 6 5.74698 5.55176 -6.11034 0 0 0
68 6 4.93582 7.18805 -6.77487 0 0 0
69 1 6.75133 8.37888 14.167 0 0 0
70 2 7.65133 8.67097 13.3996 0 0 0
84 3 9.93816 6.41722 11.1162 0 0 0
86 3 7.18863 9.85012 12.8805 0 0 0
87 3 9.07824 5.72873 11.5432 0 0 0
88 4 6.56043 8.76219 12.8792 0 0 0
114 5 9.16328 7.04248 11.4435 0 0 0
115 5 8.92242 6.67002 10.7181 0 0 0
117 5 7.51423 8.92958 13.0819 0 0 0
119 5 9.33966 5.25689 12.3209 0 0 0
120 5 9.3054 4.81039 11.7778 0 0 0
121 5 9.33542 6.46009 12.3532 0 0 0
122 6 6.25006 7.73822 14.5978 0 0 0
64 6 -0.24004 3.49351 -0.282395 0 0 0
109 5 10.6208 4.9714 9.43558 0 0 0
15 5 0.705424 -1.21598 -0.427976 0 0 0
41 6 2.42578 0.150603 -2.5324 0 0 0
73 3 9.2781 12.6081 10.9148 0 0 0
75 3 8.76899 11.2734 11.4402 0 0 0
80 3 7.58875 10.5602 11.6331 0 0 0
90 5 9.15164 13.9591 10.2135 0 0 0
93 5 8.56985 13.3892 10.8618 0 0 0
94 5 9.66469 12.215 10.0909 0 0 0
97 5 7.8175 11.7671 11.9532 0 0 0
98 5 8.86193 10.2532 10.8839 0 0 0
107 5 8.51925 9.949 11.3399 0 0 0
108 5 7.44057 11.4032 12.3442 0 0 0
118 5 6.37221 9.98216 13.662 0 0 0
ITEM: TIMESTEP
50
ITEM: NUMBER OF ATOMS
122
ITEM: BOX BOUNDS pp pp pp
0.0000000000000000e+00 2.0000000000000000e+01
0.0000000000000000e+00 2.0000000000000000e+01
0.0000000000000000e+00 2.0000000000000000e+01
ITEM: ATOMS id type xu yu zu vx vy vz
63 6 -0.45392 1.5297 0.145941 0 0 0
76 3 11.5242 8.20487 9.31401 0 0 0
77 3 11.4255 6.90908 8.40038 0 0 0
78 3 12.1385 9.28779 8.50146 0 0 0
81 3 10.7257 5.8387 9.45064 0 0 0
99 5 10.5354 8.16329 9.44742 0 0 0
100 5 11.9671 8.53392 10.2866 0 0 0
101 5 12.2952 6.15815 8.26018 0 0 0
102 5 11.0821 7.38083 7.27564 0 0 0
103 5 13.2014 8.97807 8.28142 0 0 0
104 5 13.2331 9.21761 8.93619 0 0 0
110 5 11.8522 5.57882 9.30866 0 0 0
71 3 10.027 12.8415 9.43716 0 0 0
92 5 10.747 15.0039 9.47462 0 0 0
16 1 -0.459095 -1.19172 0.998344 0 0 0
17 1 -1.32841 -2.50234 1.21326 0 0 0
18 1 -1.97699 -2.33872 2.66499 0 0 0
19 1 -2.51716 -3.732 3.21949 0 0 0
20 1 -3.55983 -3.60691 4.25743 0 0 0
21 1 -3.79535 -5.10646 4.8429 0 0 0
22 1 -5.21568 -5.01133 5.27633 0 0 0
23 1 -4.74207 -6.15714 6.28236 0 0 0
24 1 -5.36544 -6.14183 7.59558 0 0 0
25 1 -5.96956 -7.23308 8.4049 0 0 0
26 5 -5.62556 -7.93671 9.92155 0 0 0
42 6 -1.08604 -0.475257 1.50218 0 0 0
43 6 -0.781079 -0.426264 0.329032 0 0 0
44 6 -0.409182 -2.85843 0.740721 0 0 0
45 6 -0.989955 -3.46585 1.61254 0 0 0
46 6 -2.67607 -1.7192 3.27881 0 0 0
47 6 -2.41872 -1.63661 1.89665 0 0 0
48 6 -1.84381 -4.52863 2.81958 0 0 0
49 6 -3.66769 -4.11519 3.12859 0 0 0
50 6 -3.80323 -2.75662 5.01438 0 0 0
51 6 -3.55826 -3.24223 3.08055 0 0 0
52 6 -3.21804 -5.61387 4.01942 0 0 0
53 6 -4.73727 -5.84495 4.79651 0 0 0
54 6 -5.65409 -4.62116 6.19965 0 0 0
55 6 -4.80311 -4.1408 4.61514 0 0 0
56 6 -4.58618 -7.19709 5.84668 0 0 0
57 6 -5.71779 -6.4838 6.78522 0 0 0
58 6 -6.2114 -5.43199 7.91533 0 0 0
59 6 -5.65814 -6.77334 6.63245 0 0 0
60 6 -6.10788 -8.16735 7.7084 0 0 0
61 6 -6.85125 -6.60812 9.07701 0 0 0
62 7 -6.7731 -8.50985 9.48983 0 0 0
72 3 10.8882 13.9728 8.93052 0 0 0
74 3 11.0059 14.5079 7.53391 0 0 0
79 3 11.0198 13.388 6.20665 0 0 0
82 3 11.2021 10.6882 8.70595 0 0 0
83 4 11.8686 12.4113 6.80899 0 0 0
85 4 11.8392 11.6995 8.03024 0 0 0
89 5 10.9526 13.0952 9.69575 0 0 0
91 5 10.1718 14.0339 8.36569 0 0 0
95 5 10.1841 15.2601 7.3728 0 0 0
96 5 11.469 15.4852 7.85363 0 0 0
105 5 11.5608 13.4341 5.19445 0 0 0
106 5 10.1608 12.8443 5.56182 0 0 0
111 5 10.3168 10.661 8.09965 0 0 0
112 5 10.7366 11.11 7.9473 0 0 0
113 5 12.3691 12.1395 5.84283 0 0 0
116 5 11.7381 11.2956 7.31329 0 0 0
1 1 6.29621 5.81761 -7.6834 0 0 0
2 1 5.86321 4.40211 -7.43534 0 0 0
3 1 5.32723 4.0901 -6.03967 0 0 0
4 2 5.27176 5.25394 -5.24874 0 0 0
5 3 4.19729 4.90833 -4.39451 0 0 0
6 3 3.67415 6.17812 -4.36578 0 0 0
7 3 2.69812 6.25941 -3.47792 0 0 0
8 3 2.2474 5.1283 -2.84767 0 0 0
9 3 1.51819 4.57399 -1.87995 0 0 0
10 4 0.900253 5.45764 -1.29822 0 0 0
11 3 1.51252 3.18507 -1.58401 0 0 0
12 3 2.20341 2.01581 -2.01004 0 0 0
13 3 2.01339 0.86233 -2.15763 0 0 0
14 3 1.05513 0.463279 -1.14635 0 0 0
27 3 0.3065 1.54665 -0.551047 0 0 0
28 3 0.469114 2.86666 -0.787977 0 0 0
29 3 2.47801 3.99196 -3.38084 0 0 0
30 3 3.63818 3.80488 -3.68161 0 0 0
31 1 5.13952 5.67092 -6.6936 0 0 0
32 6 7.26398 5.24783 -8.23448 0 0 0
33 6 5.84522 6.89509 -7.77259 0 0 0
34 6 4.93897 4.42813 -8.01388 0 0 0
35 6 6.87196 3.74112 -7.72957 0 0 0
36 6 6.24024 3.61706 -6.03914 0 0 0
37 6 5.10295 3.16835 -5.56093 0 0 0
38 6 3.97839 7.02002 -4.8641 0 0 0
39 6 2.39192 7.14506 -3.43665 0 0 0
40 6 2.67352 1.75142 -2.91114 0 0 0
65 6 1.91956 3.20566 -3.66415 0 0 0
66 6 3.63403 2.80413 -3.43767 0 0 0
67 6 6.04893 5.08245 -6.84118 0 0 0
68 6 4.92186 6.7767 -6.77278 0 0 0
69 1 6.57035 8.21527 14.1118 0 0 0
70 2 7.9285 7.58556 12.7824 0 0 0
84 3 9.79807 6.2367 10.9203 0 0 0
86 3 6.96311 9.91036 13.3731 0 0 0
87 3 9.33535 5.76515 12.1836 0 0 0
88 4 7.1161 8.50617 12.9593 0 0 0
114 5 10.2655 6.67405 11.8448 0 0 0
115 5 8.82356 6.61953 10.776 0 0 0
117 5 7.55316 9.76062 14.3651 0 0 0
119 5 9.79074 5.26837 13.0225 0 0 0
120 5 9.53376 4.91509 11.8565 0 0 0
121 5 10.0645 6.529 12.2868 0 0 0
122 6 6.7543 7.27239 14.1943 0 0 0
64 6 -0.160592 3.53485 -0.347077 0 0 0
109 5 10.3822 4.81297 9.05436 0 0 0
15 5 0.68697 -1.17644 -0.493183 0 0 0
41 6 2.78706 0.898929 -3.00732 0 0 0
73 3 9.13427 12.6224 10.6505 0 0 0
75 3 8.7294 11.1856 11.2498 0 0 0
80 3 7.43774 10.4084 11.8488 0 0 0
90 5 9.55143 13.4677 9.28205 0 0 0
93 5 8.50445 13.5906 10.9264 0 0 0
94 5 10.0625 12.6424 11.2206 0 0 0
97 5 7.85575 11.607 11.7748 0 0 0
98 5 8.82626 10.3699 10.4746 0 0 0
107 5 8.13611 9.81964 11.2058 0 0 0
108 5 7.35281 11.3424 12.2861 0 0 0
118 5 5.89905 10.1774 13.9901 0 0 0
ITEM: TIMESTEP
75
ITEM: NUMBER OF ATOMS
122
ITEM: BOX BOUNDS pp pp pp
0.0000000000000000e+00 2.0000000000000000e+01
0.0000000000000000e+00 2.0000000000000000e+01
0.0000000000000000e+00 2.0000000000000000e+01
ITEM: ATOMS id type xu yu zu vx vy vz
63 6 -0.302378 1.3375 -0.0542654 0 0 0
76 3 11.5614 8.35463 9.50624 0 0 0
77 3 11.2398 7.26788 8.33001 0 0 0
78 3 12.2989 9.53342 8.93331 0 0 0
81 3 10.644 6.0259 9.31744 0 0 0
99 5 10.915 8.51128 10.3899 0 0 0
100 5 12.4049 8.30413 10.2216 0 0 0
101 5 12.085 6.5896 7.92803 0 0 0
102 5 10.919 7.91176 7.2759 0 0 0
103 5 13.1366 9.43315 8.21916 0 0 0
104 5 13.211 9.17669 9.61072 0 0 0
110 5 11.6999 5.68994 9.15813 0 0 0
71 3 10.1902 12.9471 9.56217 0 0 0
92 5 11.0237 14.7773 9.20296 0 0 0
16 1 -0.569856 -1.15095 0.710786 0 0 0
17 1 -1.37429 -2.50679 1.21537 0 0 0
18 1 -2.02801 -2.30707 2.67817 0 0 0
19 1 -2.70493 -3.76829 3.11053 0 0 0
20 1 -3.50061 -3.7376 4.36309 0 0 0
21 1 -3.81566 -5.26336 4.84494 0 0 0
22 1 -5.24878 -5.03209 5.10906 0 0 0
23 1 -4.88215 -6.22137 6.21515 0 0 0
24 1 -5.14404 -6.19382 7.64204 0 0 0
25 1 -6.06641 -7.14683 8.42005 0 0 0
26 5 -5.23125 -8.11876 9.5416 0 0 0
42 6 -0.571455 -0.55631 1.63638 0 0 0
43 6 -1.16639 -0.561747 0.0187494 0 0 0
44 6 -0.420093 -2.90182 0.839214 0 0 0
45 6 -1.11721 -3.41736 1.78108 0 0 0
46 6 -2.73821 -1.61571 3.23676 0 0 0
47 6 -2.17788 -1.44202 1.93779 0 0 0
48 6 -1.87088 -4.50936 3.01133 0 0 0
49 6 -3.88197 -4.08035 2.97757 0 0 0
50 6 -3.64828 -2.98744 5.21858 0 0 0
51 6 -3.26056 -3.27391 3.19885 0 0 0
52 6 -3.41232 -5.58884 3.85123 0 0 0
53 6 -4.78521 -5.95737 5.06158 0 0 0
54 6 -5.84989 -4.7794 6.02275 0 0 0
55 6 -4.80034 -4.12528 4.48694 0 0 0
56 6 -4.16481 -7.17771 6.07251 0 0 0
57 6 -5.93089 -6.55221 6.73654 0 0 0
58 6 -5.90962 -5.4317 8.00676 0 0 0
59 6 -5.40721 -6.77321 6.66579 0 0 0
60 6 -6.50534 -8.11133 7.8519 0 0 0
61 6 -6.73782 -6.44169 9.19614 0 0 0
62 7 -6.53705 -8.42929 9.23622 0 0 0
72 3 10.9273 13.939 8.57197 0 0 0
74 3 10.7723 14.6502 7.14627 0 0 0
79 3 11.1051 13.4511 5.90922 0 0 0
82 3 11.3103 10.8218 8.95575 0 0 0
83 4 11.7326 12.3226 6.73021 0 0 0
85 4 11.5438 11.7589 8.06295 0 0 0
89 5 11.075 13.3508 9.76379 0 0 0
91 5 9.98062 13.6985 8.36234 0 0 0
95 5 9.97502 15.5504 7.16205 0 0 0
96 5 11.5414 15.4293 7.33045 0 0 0
105 5 11.817 13.5803 4.97737 0 0 0
106 5 10.3792 12.8475 5.21267 0 0 0
111 5 10.5454 10.6317 8.22417 0 0 0
112 5 10.8669 11.1051 8.14709 0 0 0
113 5 12.2875 12.0055 5.8179 0 0 0
116 5 10.8139 11.1705 7.82895 0 0 0
1 1 6.12279 5.50659 -7.89376 0 0 0
2 1 5.53905 4.13263 -7.51074 0 0 0
3 1 5.41096 3.87516 -5.94594 0 0 0
4 2 5.15679 4.99637 -5.15208 0 0 0
5 3 4.01478 4.72389 -4.30527 0 0 0
6 3 3.56613 5.99696 -4.38495 0 0 0
7 3 2.54386 6.19679 -3.58039 0 0 0
8 3 1.96405 5.03002 -3.04727 0 0 0
9 3 1.55257 4.74091 -1.79385 0 0 0
10 4 0.926487 5.62418 -1.1969 0 0 0
11 3 1.66788 3.40965 -1.33622 0 0 0
12 3 2.4249 2.25424 -1.61479 0 0 0
13 3 2.06508 1.32644 -2.37155 0 0 0
14 3 1.21009 0.650431 -1.41221 0 0 0
27 3 0.433 1.59096 -0.700834 0 0 0
28 3 0.546158 2.95373 -0.730568 0 0 0
29 3 1.9941 3.79541 -3.6092 0 0 0
30 3 3.3514 3.75755 -3.5201 0 0 0
31 1 5.13266 5.44394 -6.65068 0 0 0
32 6 7.2789 5.09476 -8.16405 0 0 0
33 6 5.87153 6.65611 -7.71983 0 0 0
34 6 4.50822 4.24709 -7.81884 0 0 0
35 6 6.20441 3.3397 -8.11984 0 0 0
36 6 6.39121 3.79846 -5.59337 0 0 0
37 6 4.79153 3.02851 -5.68834 0 0 0
38 6 4.02669 6.76684 -4.85901 0 0 0
39 6 2.471 7.16349 -3.43566 0 0 0
40 6 2.67879 1.92907 -2.63243 0 0 0
65 6 1.35929 2.96169 -3.44845 0 0 0
66 6 3.78468 3.16814 -2.84469 0 0 0
67 6 5.9392 4.73137 -6.9311 0 0 0
68 6 4.98665 6.54741 -6.75139 0 0 0
69 1 6.90393 7.61546 14.217 0 0 0
70 2 7.8843 7.38969 12.755 0 0 0
84 3 9.79199 6.18103 10.8444 0 0 0
86 3 7.15813 9.89626 13.5389 0 0 0
87 3 9.60635 5.90956 12.3719 0 0 0
88 4 7.29968 8.33477 13.215 0 0 0
114 5 10.466 6.10137 11.755 0 0 0
115 5 8.86927 6.60686 10.7188 0 0 0
117 5 7.5734 10.1523 14.6058 0 0 0
119 5 10.1209 5.20082 13.0372 0 0 0
120 5 9.47252 5.22555 11.8092 0 0 0
121 5 10.2821 6.68368 12.4996 0 0 0
122 6 7.26721 6.73486 13.8658 0 0 0
64 6 -0.182365 3.53167 -0.31817 0 0 0
109 5 10.2802 5.0361 8.88533 0 0 0
15 5 0.870466 -0.979455 -0.588461 0 0 0
41 6 2.75051 1.66437 -3.27303 0 0 0
73 3 9.37922 12.7778 10.9406 0 0 0
75 3 8.85336 11.2002 11.1344 0 0 0
80 3 7.71905 10.4235 12.0357 0 0 0
90 5 9.67031 13.3555 8.79888 0 0 0
93 5 8.59755 13.6049 11.108 0 0 0
94 5 9.99744 13.0088 11.8607 0 0 0
97 5 7.84481 11.3859 10.8791 0 0 0
98 5 8.84858 10.5012 10.3201 0 0 0
107 5 7.5423 9.67314 11.1944 0 0 0
108 5 6.92457 11.1238 11.8814 0 0 0
118 5 6.05238 10.2093 13.9719 0 0 0
ITEM: TIMESTEP
100
ITEM: NUMBER OF ATOMS
122
ITEM: BOX BOUNDS pp pp pp
0.0000000000000000e+00 2.0000000000000000e+01
0.0000000000000000e+00 2.0000000000000000e+01
0.0000000000000000e+00 2.0000000000000000e+01
ITEM: ATOMS id type xu yu zu vx vy vz
63 6 -0.311237 1.32759 -0.185098 0 0 0
76 3 11.6094 8.45405 9.69889 0 0 0
77 3 11.1233 7.52159 8.38886 0 0 0
78 3 12.3434 9.66672 9.2426 0 0 0
81 3 10.5971 6.20882 9.24744 0 0 0
99 5 11.2067 8.46979 10.7666 0 0 0
100 5 12.5822 8.25842 10.2044 0 0 0
101 5 11.8811 6.84733 7.87192 0 0 0
102 5 10.8109 8.08305 7.30093 0 0 0
103 5 13.0536 9.48695 8.45065 0 0 0
104 5 13.2217 9.36543 10.0069 0 0 0
110 5 11.5943 5.80473 9.02946 0 0 0
71 3 10.1991 13.1212 9.60608 0 0 0
92 5 11.0541 14.8179 9.13011 0 0 0
16 1 -0.60007 -1.1639 0.630836 0 0 0
17 1 -1.41405 -2.50688 1.24597 0 0 0
18 1 -2.16424 -2.27929 2.67073 0 0 0
19 1 -2.95571 -3.75229 2.96632 0 0 0
20 1 -3.26158 -3.85722 4.43223 0 0 0
21 1 -3.83921 -5.409 4.70935 0 0 0
22 1 -5.23901 -4.99458 4.99292 0 0 0
23 1 -4.94831 -6.17662 6.16762 0 0 0
24 1 -5.10891 -6.19839 7.60954 0 0 0
25 1 -6.10312 -7.11693 8.37916 0 0 0
26 5 -5.07914 -8.09567 9.32453 0 0 0
42 6 -0.368762 -0.698139 1.59705 0 0 0
43 6 -1.27137 -0.527668 0.0283686 0 0 0
44 6 -0.474395 -2.96492 0.908936 0 0 0
45 6 -1.15115 -3.26519 2.03131 0 0 0
46 6 -3.01479 -1.66917 3.08747 0 0 0
47 6 -2.06054 -1.36215 1.96585 0 0 0
48 6 -2.05539 -4.4929 2.95498 0 0 0
49 6 -4.09573 -4.07842 2.90629 0 0 0
50 6 -3.52754 -3.18306 5.33909 0 0 0
51 6 -2.39296 -3.3143 3.59575 0 0 0
52 6 -3.56664 -5.6562 3.65156 0 0 0
53 6 -4.85349 -6.04269 5.03625 0 0 0
54 6 -5.99693 -5.01515 5.85947 0 0 0
55 6 -4.85249 -3.96825 4.47023 0 0 0
56 6 -3.9643 -6.90966 6.19578 0 0 0
57 6 -6.03019 -6.61174 6.65649 0 0 0
58 6 -5.84961 -5.41143 7.94907 0 0 0
59 6 -5.19862 -6.87499 6.66399 0 0 0
60 6 -6.62843 -8.1039 7.91689 0 0 0
61 6 -6.72177 -6.40876 9.17426 0 0 0
62 7 -6.41238 -8.33716 9.08864 0 0 0
72 3 10.9304 13.9659 8.51693 0 0 0
74 3 10.7935 14.6191 7.03367 0 0 0
79 3 11.2176 13.4566 5.82882 0 0 0
82 3 11.3787 10.9612 9.09105 0 0 0
83 4 11.6232 12.2363 6.72362 0 0 0
85 4 11.3269 11.7241 8.06366 0 0 0
89 5 11.0937 13.4454 9.75424 0 0 0
91 5 9.96412 13.7533 8.35336 0 0 0
95 5 9.99202 15.498 6.94962 0 0 0
96 5 11.5483 15.4094 7.17498 0 0 0
105 5 11.9604 13.6994 4.90686 0 0 0
106 5 10.5145 12.8779 5.11075 0 0 0
111 5 10.7737 10.6143 8.40808 0 0 0
112 5 10.5838 11.0033 8.42432 0 0 0
113 5 12.1352 11.7389 5.92257 0 0 0
116 5 10.5356 11.083 8.07429 0 0 0
1 1 6.00762 5.34311 -7.92404 0 0 0
2 1 5.37647 3.99622 -7.48298 0 0 0
3 1 5.37713 3.71749 -5.91265 0 0 0
4 2 5.05066 4.84914 -5.16851 0 0 0
5 3 3.85144 4.67985 -4.4125 0 0 0
6 3 3.46011 5.9547 -4.47339 0 0 0
7 3 2.4548 6.14729 -3.63282 0 0 0
8 3 1.81518 5.02319 -3.05599 0 0 0
9 3 1.58558 4.7891 -1.73633 0 0 0
10 4 1.04556 5.72344 -1.13213 0 0 0
11 3 1.74803 3.465 -1.21851 0 0 0
12 3 2.55105 2.2907 -1.51281 0 0 0
13 3 2.2821 1.3143 -2.29315 0 0 0
14 3 1.17746 0.74106 -1.54111 0 0 0
27 3 0.426851 1.65021 -0.786116 0 0 0
28 3 0.588333 3.00589 -0.685841 0 0 0
29 3 1.78129 3.76072 -3.56888 0 0 0
30 3 3.12913 3.87913 -3.55094 0 0 0
31 1 5.09059 5.35687 -6.64852 0 0 0
32 6 7.1307 4.90071 -8.20085 0 0 0
33 6 5.846 6.49463 -7.6861 0 0 0
34 6 4.34277 4.16296 -7.68467 0 0 0
35 6 5.84003 3.1699 -8.16548 0 0 0
36 6 6.37143 3.69847 -5.54833 0 0 0
37 6 4.7772 2.87362 -5.625 0 0 0
38 6 3.98664 6.70435 -4.90188 0 0 0
39 6 2.48814 7.09944 -3.43777 0 0 0
40 6 2.93471 2.07626 -2.5022 0 0 0
65 6 1.25328 2.89768 -3.24558 0 0 0
66 6 3.47887 3.64277 -2.68306 0 0 0
67 6 5.85506 4.58649 -6.89359 0 0 0
68 6 5.13664 6.46841 -6.67021 0 0 0
69 1 7.40124 7.22932 14.1823 0 0 0
70 2 7.76021 7.32565 12.6815 0 0 0
84 3 9.95557 6.26267 10.8001 0 0 0
86 3 7.23534 9.90683 13.532 0 0 0
87 3 9.98117 6.02538 12.3068 0 0 0
88 4 7.48078 8.29518 13.3974 0 0 0
114 5 10.5613 5.59654 11.4281 0 0 0
115 5 8.96635 6.52444 10.8541 0 0 0
117 5 7.67766 10.3691 14.5192 0 0 0
119 5 10.3309 5.09962 12.8409 0 0 0
120 5 9.19709 5.69609 11.7998 0 0 0
121 5 10.1493 6.89274 12.8681 0 0 0
122 6 7.81879 6.52362 13.5065 0 0 0
64 6 -0.153801 3.57279 -0.278189 0 0 0
109 5 10.1135 5.30578 8.77304 0 0 0
15 5 0.812454 -0.918261 -0.717177 0 0 0
41 6 2.73005 1.82682 -3.24025 0 0 0
73 3 9.37431 12.7953 10.9518 0 0 0
75 3 8.71794 11.2255 10.9499 0 0 0
80 3 7.56888 10.5052 11.9607 0 0 0
90 5 9.69767 13.5118 8.83995 0 0 0
93 5 8.59441 13.598 11.1605 0 0 0
94 5 9.95369 13.0243 11.9169 0 0 0
97 5 8.28309 10.9016 9.98356 0 0 0
98 5 9.13471 10.3585 10.6752 0 0 0
107 5 7.41272 9.65275 11.2305 0 0 0
108 5 6.69971 11.0995 11.7635 0 0 0
118 5 6.16758 10.2569 13.9918 0 0 0
ITEM: TIMESTEP
125
ITEM: NUMBER OF ATOMS
122
ITEM: BOX BOUNDS pp pp pp
0.0000000000000000e+00 2.0000000000000000e+01
0.0000000000000000e+00 2.0000000000000000e+01
0.0000000000000000e+00 2.0000000000000000e+01
ITEM: ATOMS id type xu yu zu vx vy vz
63 6 -0.423164 1.37119 -0.475467 0 0 0
76 3 11.6841 8.48027 9.83477 0 0 0
77 3 11.0894 7.72225 8.4303 0 0 0
78 3 12.3619 9.80502 9.64814 0 0 0
81 3 10.4927 6.41447 9.15694 0 0 0
99 5 11.4005 8.26126 10.9071 0 0 0
100 5 12.7227 8.19541 10.1438 0 0 0
101 5 11.7766 7.03575 7.85252 0 0 0
102 5 10.8283 8.25325 7.32883 0 0 0
103 5 13.0091 9.47662 8.89165 0 0 0
104 5 13.2062 9.6808 10.4907 0 0 0
110 5 11.4208 5.94984 8.83877 0 0 0
71 3 10.1341 13.1572 9.54421 0 0 0
92 5 11.0214 14.8299 9.04549 0 0 0
16 1 -0.610651 -1.1659 0.672157 0 0 0
17 1 -1.30432 -2.5417 1.43617 0 0 0
18 1 -2.28732 -2.33546 2.72637 0 0 0
19 1 -3.14587 -3.68737 2.98769 0 0 0
20 1 -2.89703 -4.14263 4.45499 0 0 0
21 1 -3.89074 -5.5115 4.33435 0 0 0
22 1 -5.0697 -4.7838 5.00045 0 0 0
23 1 -4.91597 -5.89181 6.18618 0 0 0
24 1 -5.08488 -6.14192 7.59022 0 0 0
25 1 -6.14118 -7.07266 8.3086 0 0 0
26 5 -4.99633 -8.08413 9.06916 0 0 0
42 6 -0.457369 -0.753002 1.6792 0 0 0
43 6 -1.35961 -0.548997 0.138681 0 0 0
44 6 -0.756267 -3.34756 0.926914 0 0 0
45 6 -0.919874 -3.03965 2.40454 0 0 0
46 6 -3.38361 -2.34205 3.02569 0 0 0
47 6 -2.25733 -1.29543 2.18896 0 0 0
48 6 -2.39591 -4.2552 2.35244 0 0 0
49 6 -4.33785 -3.83462 2.90833 0 0 0
50 6 -3.30343 -3.71374 5.47898 0 0 0
51 6 -1.93957 -3.55037 3.80047 0 0 0
52 6 -3.80943 -5.54577 3.23043 0 0 0
53 6 -4.67213 -6.33536 4.87046 0 0 0
54 6 -6.04891 -5.19183 5.47053 0 0 0
55 6 -4.83134 -3.63432 4.56433 0 0 0
56 6 -3.77436 -6.17834 6.33431 0 0 0
57 6 -6.01046 -6.48977 6.53979 0 0 0
58 6 -5.87083 -5.36456 7.7964 0 0 0
59 6 -4.82705 -6.79608 6.6245 0 0 0
60 6 -6.67957 -8.11588 7.94406 0 0 0
61 6 -6.7412 -6.35629 9.11612 0 0 0
62 7 -6.3268 -8.32876 8.84817 0 0 0
72 3 10.8968 13.9535 8.45602 0 0 0
74 3 10.8197 14.5819 6.94917 0 0 0
79 3 11.3132 13.4269 5.78063 0 0 0
82 3 11.5031 11.1096 9.24501 0 0 0
83 4 11.569 12.1767 6.75429 0 0 0
85 4 11.2472 11.6661 8.10476 0 0 0
89 5 11.0247 13.5677 9.65618 0 0 0
91 5 9.91857 13.6898 8.32812 0 0 0
95 5 9.98322 15.3968 6.82868 0 0 0
96 5 11.5399 15.4037 7.08096 0 0 0
105 5 12.0629 13.6236 4.83956 0 0 0
106 5 10.6471 12.9916 4.955 0 0 0
111 5 10.9541 10.6102 8.71056 0 0 0
112 5 10.6746 10.982 8.64831 0 0 0
113 5 11.9821 11.5702 5.99329 0 0 0
116 5 10.5158 11.0176 8.20753 0 0 0
1 1 6.09747 5.13042 -7.8025 0 0 0
2 1 5.27134 3.83584 -7.40872 0 0 0
3 1 5.19414 3.45519 -5.8498 0 0 0
4 2 4.8596 4.60515 -5.11379 0 0 0
5 3 3.55257 4.5815 -4.55603 0 0 0
6 3 3.22978 5.87786 -4.58082 0 0 0
7 3 2.31712 6.04351 -3.60308 0 0 0
8 3 1.65855 4.96676 -2.91272 0 0 0
9 3 1.58072 4.80739 -1.53835 0 0 0
10 4 1.19038 5.80345 -0.925169 0 0 0
11 3 1.89798 3.47529 -1.05368 0 0 0
12 3 2.82682 2.41187 -1.54508 0 0 0
13 3 2.44372 1.41622 -2.30869 0 0 0
14 3 1.2538 0.872566 -1.61126 0 0 0
27 3 0.411429 1.73471 -0.915609 0 0 0
28 3 0.673112 3.04143 -0.618829 0 0 0
29 3 1.4709 3.71938 -3.46816 0 0 0
30 3 2.77055 3.99091 -3.61085 0 0 0
31 1 5.19422 5.27244 -6.5091 0 0 0
32 6 7.30066 4.78442 -8.07309 0 0 0
33 6 5.85464 6.29457 -7.78549 0 0 0
34 6 4.27347 4.13083 -7.55933 0 0 0
35 6 5.55263 2.99803 -8.12594 0 0 0
36 6 6.1557 3.31484 -5.44798 0 0 0
37 6 4.58894 2.61296 -5.60115 0 0 0
38 6 3.79062 6.62645 -4.99081 0 0 0
39 6 2.49402 6.949 -3.34743 0 0 0
40 6 3.55041 2.40557 -2.36372 0 0 0
65 6 1.11526 2.85168 -3.01216 0 0 0
66 6 3.1229 3.98561 -2.76884 0 0 0
67 6 5.82846 4.38663 -6.73781 0 0 0
68 6 5.42102 6.35622 -6.4332 0 0 0
69 1 7.63644 7.34823 14.1151 0 0 0
70 2 7.76866 7.42831 12.429 0 0 0
84 3 9.9605 6.14385 10.6948 0 0 0
86 3 7.30825 9.9621 13.4124 0 0 0
87 3 10.2965 6.14194 12.1862 0 0 0
88 4 7.68262 8.35647 13.2542 0 0 0
114 5 10.0745 5.10079 10.7977 0 0 0
115 5 9.02892 6.36088 10.8003 0 0 0
117 5 7.72816 10.5176 14.3674 0 0 0
119 5 10.8156 5.25636 12.5822 0 0 0
120 5 9.42261 5.69227 12.1156 0 0 0
121 5 10.1493 6.85047 12.9677 0 0 0
122 6 7.87975 6.62356 13.433 0 0 0
64 6 -0.0608978 3.62496 -0.199584 0 0 0
109 5 9.87628 5.6495 8.61878 0 0 0
15 5 0.767723 -0.771162 -0.750072 0 0 0
41 6 2.78029 1.96904 -3.24711 0 0 0
73 3 9.3023 12.8039 10.8975 0 0 0
75 3 8.81092 11.164 10.9172 0 0 0
80 3 7.50472 10.6025 11.8478 0 0 0
90 5 9.58603 13.4325 8.76971 0 0 0
93 5 8.5167 13.6037 11.1156 0 0 0
94 5 9.83594 13.0259 11.8896 0 0 0
97 5 8.39538 10.5547 10.0591 0 0 0
98 5 9.61877 10.5263 11.2167 0 0 0
107 5 7.19237 9.82627 11.0989 0 0 0
108 5 6.60246 11.2075 11.6785 0 0 0
118 5 6.24645 10.2344 13.9256 0 0 0
ITEM: TIMESTEP
150
ITEM: NUMBER OF ATOMS
122
ITEM: BOX BOUNDS pp pp pp
0.0000000000000000e+00 2.0000000000000000e+01
0.0000000000000000e+00 2.0000000000000000e+01
0.0000000000000000e+00 2.0000000000000000e+01
ITEM: ATOMS id type xu yu zu vx vy vz
63 6 -0.441203 1.43264 -0.68412 0 0 0
76 3 11.7527 8.52511 9.91693 0 0 0
77 3 11.1338 7.84598 8.47556 0 0 0
78 3 12.3241 9.95423 9.99366 0 0 0
81 3 10.396 6.57234 9.09457 0 0 0
99 5 11.4584 8.1837 10.9315 0 0 0
100 5 12.7908 8.15446 10.1288 0 0 0
101 5 11.8275 7.18342 7.8979 0 0 0
102 5 10.9951 8.33754 7.35316 0 0 0
103 5 12.9755 9.4773 9.36486 0 0 0
104 5 13.1574 9.99887 10.8746 0 0 0
110 5 11.2663 6.10521 8.67024 0 0 0
71 3 9.94891 13.1642 9.4256 0 0 0
92 5 10.9544 14.7614 8.97867 0 0 0
16 1 -0.580751 -1.17905 0.766594 0 0 0
17 1 -1.24563 -2.56898 1.61213 0 0 0
18 1 -2.36388 -2.28557 2.80971 0 0 0
19 1 -3.13989 -3.67099 2.98097 0 0 0
20 1 -2.75827 -4.4242 4.30653 0 0 0
21 1 -3.97316 -5.51039 4.20319 0 0 0
22 1 -5.04146 -4.62256 4.94379 0 0 0
23 1 -5.05968 -5.70128 6.09533 0 0 0
24 1 -5.03388 -6.0833 7.51883 0 0 0
25 1 -6.17538 -7.01023 8.23731 0 0 0
26 5 -5.09452 -8.19166 8.80642 0 0 0
42 6 -0.616075 -0.66338 1.74001 0 0 0
43 6 -1.37026 -0.697018 0.168751 0 0 0
44 6 -1.33169 -3.28684 0.775441 0 0 0
45 6 -0.746711 -3.18327 2.42704 0 0 0
46 6 -3.41697 -2.61935 3.25791 0 0 0
47 6 -2.45934 -1.24589 2.30037 0 0 0
48 6 -2.50105 -4.12042 2.18681 0 0 0
49 6 -4.33086 -3.68332 2.96446 0 0 0
50 6 -3.09416 -4.18321 5.41786 0 0 0
51 6 -1.80713 -3.89108 3.65989 0 0 0
52 6 -4.0163 -5.47622 3.06956 0 0 0
53 6 -4.14325 -6.56973 4.8608 0 0 0
54 6 -6.13933 -4.92149 5.04575 0 0 0
55 6 -4.61541 -3.4751 4.66421 0 0 0
56 6 -3.92057 -5.61536 6.33102 0 0 0
57 6 -6.11056 -6.28471 6.40418 0 0 0
58 6 -5.75997 -5.24065 7.64763 0 0 0
59 6 -4.31186 -6.53187 6.65571 0 0 0
60 6 -6.71494 -8.10551 7.98594 0 0 0
61 6 -6.79076 -6.29803 9.04284 0 0 0
62 7 -6.36433 -8.55281 8.34861 0 0 0
72 3 10.8616 13.8705 8.39898 0 0 0
74 3 10.8412 14.5266 6.8994 0 0 0
79 3 11.364 13.372 5.75617 0 0 0
82 3 11.5577 11.2288 9.33268 0 0 0
83 4 11.5476 12.1086 6.75534 0 0 0
85 4 11.2387 11.5989 8.11286 0 0 0
89 5 10.848 13.6426 9.48892 0 0 0
91 5 9.8703 13.6044 8.2565 0 0 0
95 5 9.96621 15.2875 6.7794 0 0 0
96 5 11.5252 15.3843 7.00269 0 0 0