ITEM: TIMESTEP
0
ITEM: NUMBER OF ATOMS
122
ITEM: BOX BOUNDS pp pp pp
0.0000000000000000e+00 2.0000000000000000e+01
0.0000000000000000e+00 2.0000000000000000e+01
0.0000000000000000e+00 2.0000000000000000e+01
ITEM: ATOMS id type xu yu zu vx vy vz
63 6 -0.678292 1.15184 0.388785 0 0 0
113 5 13.1996 12.8949 6.35285 0 0 0
116 5 13.1312 11.0063 6.63343 0 0 0
56 6 -5.107 -6.96914 5.80785 0 0 0
57 6 -5.34555 -6.70239 6.01264 0 0 0
16 1 -0.749029 -1.06462 0.849549 0 0 0
17 1 -1.09309 -2.46624 1.34664 0 0 0
18 1 -2.1396 -2.34116 2.50387 0 0 0
19 1 -2.48366 -3.74277 3.00096 0 0 0
20 1 -3.60011 -3.62571 4.08717 0 0 0
21 1 -3.94417 -5.02732 4.58426 0 0 0
22 1 -5.06062 -4.91026 5.67046 0 0 0
23 1 -5.40468 -6.31188 6.16756 0 0 0
42 6 -1.11664 -0.415379 1.13824 0 0 0
43 6 -0.878092 -0.682126 0.933449 0 0 0
44 6 -0.725471 -3.11548 1.05796 0 0 0
45 6 -0.964024 -2.84873 1.26275 0 0 0
46 6 -2.57716 -1.69993 2.72154 0 0 0
47 6 -2.3386 -1.96668 2.51675 0 0 0
48 6 -2.18598 -4.40003 2.64125 0 0 0
49 6 -2.42453 -4.13329 2.84604 0 0 0
50 6 -4.03767 -2.98449 4.30483 0 0 0
51 6 -3.79911 -3.25123 4.10004 0 0 0
52 6 -3.64649 -5.68459 4.22455 0 0 0
53 6 -3.88504 -5.41784 4.42934 0 0 0
54 6 -5.44343 -4.21117 5.82768 0 0 0
55 6 -5.20488 -4.47791 5.6229 0 0 0
1 1 6.80767 6.14577 -7.40615 0 0 0
2 1 6.97588 4.76678 -7.41607 0 0 0
32 6 7.11855 6.21495 -7.72011 0 0 0
34 6 7.38746 4.81269 -7.82655 0 0 0
35 6 7.4442 4.09426 -7.80129 0 0 0
81 3 10.6122 6.13565 9.94569 0 0 0
84 3 9.6228 6.64652 10.8623 0 0 0
87 3 8.84758 5.69724 11.7329 0 0 0
101 5 11.9959 6.49685 8.40143 0 0 0
109 5 10.4611 5.65266 10.0082 0 0 0
110 5 10.7368 5.16573 9.79167 0 0 0
119 5 8.70532 5.35329 11.771 0 0 0
120 5 8.98103 4.86635 11.5545 0 0 0
121 5 8.09036 6.13025 12.2888 0 0 0
88 4 6.62905 8.93466 12.9888 0 0 0
25 1 -6.93513 -7.60445 7.67983 0 0 0
26 5 -8.05835 -7.36692 9.0407 0 0 0
33 6 7.10777 6.85223 -7.78145 0 0 0
61 6 -6.80607 -7.98695 7.59593 0 0 0
62 7 -8.50274 -8.67684 9.20384 0 0 0
71 3 9.77989 13.1696 9.97092 0 0 0
73 3 9.26961 12.3707 10.5636 0 0 0
75 3 8.64105 11.317 11.3016 0 0 0
76 3 11.2016 8.18585 9.13373 0 0 0
77 3 11.3874 7.08492 9.0751 0 0 0
78 3 12.0076 9.10382 8.09559 0 0 0
79 3 11.8793 12.7306 7.8123 0 0 0
80 3 7.96892 10.6723 11.8955 0 0 0
82 3 11.8305 10.3438 8.12987 0 0 0
83 4 12.7372 12.2743 7.15979 0 0 0
85 4 12.7217 11.2199 7.29422 0 0 0
86 3 7.34036 9.61862 12.6335 0 0 0
89 5 10.1235 12.4312 9.57512 0 0 0
93 5 8.74015 13.1742 10.8535 0 0 0
94 5 9.73152 11.887 10.0226 0 0 0
95 5 10.844 13.3226 8.76498 0 0 0
97 5 8.03926 11.7846 11.7006 0 0 0
98 5 8.98468 10.5786 10.9058 0 0 0
99 5 11.0593 7.84189 9.17187 0 0 0
100 5 10.5079 8.81576 9.60491 0 0 0
102 5 11.3898 7.41284 8.89491 0 0 0
103 5 12.5854 8.54705 7.58948 0 0 0
104 5 12.0799 9.43976 7.98643 0 0 0
105 5 12.1618 13.159 7.48572 0 0 0
106 5 11.5157 11.8272 8.27241 0 0 0
107 5 8.50077 10.1967 11.4255 0 0 0
108 5 7.55535 11.4027 12.2203 0 0 0
111 5 11.0973 10.866 8.79296 0 0 0
112 5 11.7582 10.0078 8.23903 0 0 0
114 5 9.30352 7.54252 10.9347 0 0 0
115 5 9.57923 7.05559 10.7182 0 0 0
117 5 7.85462 8.86494 12.2122 0 0 0
118 5 6.9092 10.071 13.007 0 0 0
60 6 -6.56751 -8.25369 7.39115 0 0 0
58 6 -6.90394 -5.49572 7.41098 0 0 0
72 3 10.4085 14.2233 9.23295 0 0 0
74 3 11.1265 13.751 8.4384 0 0 0
90 5 9.1781 13.6372 10.3699 0 0 0
91 5 10.5751 14.7249 8.87143 0 0 0
92 5 9.82425 14.969 9.58323 0 0 0
96 5 11.4901 14.6544 7.97829 0 0 0
24 1 -6.53633 -6.14496 7.12229 0 0 0
59 6 -6.66539 -5.76247 7.20619 0 0 0
3 1 6.02566 4.28116 -6.4255 0 0 0
4 2 5.54619 5.52255 -5.67114 0 0 0
5 3 4.44968 5.20977 -4.97843 0 0 0
6 3 3.79756 6.20692 -4.44887 0 0 0
7 3 2.91087 5.9182 -3.5431 0 0 0
8 3 2.52965 4.73677 -3.03428 0 0 0
9 3 1.40239 4.45529 -2.17402 0 0 0
10 4 1.14591 5.41138 -1.32543 0 0 0
11 3 1.2989 3.04644 -1.63141 0 0 0
12 3 2.05172 2.02601 -2.2575 0 0 0
13 3 1.81715 0.740148 -1.8813 0 0 0
14 3 0.829763 0.474711 -0.878997 0 0 0
27 3 0.122897 1.41398 -0.288987 0 0 0
28 3 0.357468 2.69985 -0.665193 0 0 0
29 3 3.18177 3.73962 -3.56384 0 0 0
30 3 4.06847 4.02834 -4.46961 0 0 0
31 1 5.70001 6.40186 -6.34431 0 0 0
36 6 5.99049 3.72504 -6.32806 0 0 0
37 6 5.83505 3.69044 -6.17109 0 0 0
39 6 2.32667 6.66386 -3.19281 0 0 0
40 6 2.65829 2.21424 -3.01688 0 0 0
65 6 2.8489 2.80495 -3.27129 0 0 0
66 6 4.51279 3.26664 -4.96194 0 0 0
67 6 5.48103 6.17036 -6.10253 0 0 0
64 6 -0.272688 3.52666 -0.278823 0 0 0
38 6 3.99056 7.12554 -4.88347 0 0 0
68 6 5.45947 7.44491 -6.22523 0 0 0
69 1 6.61474 8.00299 14.2345 0 0 0
122 6 5.67202 7.5337 14.0894 0 0 0
70 2 7.01152 9.20297 13.4266 0 0 0
15 5 0.638755 -1.22022 -0.358692 0 0 0
41 6 2.26148 -0.0215519 -2.37363 0 0 0
ITEM: TIMESTEP
25
ITEM: NUMBER OF ATOMS
122
ITEM: BOX BOUNDS pp pp pp
0.0000000000000000e+00 2.0000000000000000e+01
0.0000000000000000e+00 2.0000000000000000e+01
0.0000000000000000e+00 2.0000000000000000e+01
ITEM: ATOMS id type xu yu zu vx vy vz
63 6 -0.948642 1.07264 0.609056 0 0 0
113 5 13.0149 12.9633 5.74681 0 0 0
116 5 13.394 10.7199 5.95676 0 0 0
56 6 -4.58149 -7.17598 5.45263 0 0 0
57 6 -5.53522 -7.11009 6.22125 0 0 0
16 1 -0.776815 -1.06448 0.87395 0 0 0
17 1 -1.09434 -2.46424 1.3473 0 0 0
18 1 -1.84198 -2.8628 2.46116 0 0 0
19 1 -2.48791 -3.20092 3.20035 0 0 0
20 1 -3.36684 -4.16769 4.20783 0 0 0
21 1 -3.87176 -4.49426 4.76241 0 0 0
22 1 -4.95077 -5.42823 5.83301 0 0 0
23 1 -5.26185 -5.65505 6.27849 0 0 0
42 6 -1.11788 -0.416471 1.13973 0 0 0
43 6 -0.877761 -0.680045 0.932954 0 0 0
44 6 -0.724485 -3.11561 1.057 0 0 0
45 6 -0.964428 -2.85097 1.26334 0 0 0
46 6 -2.64497 -1.59389 2.7477 0 0 0
47 6 -2.56553 -1.54013 2.53228 0 0 0
48 6 -2.14681 -4.52525 2.58312 0 0 0
49 6 -2.35845 -4.58981 2.66722 0 0 0
50 6 -4.34622 -2.7792 4.72158 0 0 0
51 6 -3.82281 -2.87033 3.60014 0 0 0
52 6 -3.60604 -5.82679 4.15973 0 0 0
53 6 -3.82124 -5.88764 4.24666 0 0 0
54 6 -5.7646 -4.0139 6.21604 0 0 0
55 6 -5.17384 -4.09146 5.1405 0 0 0
1 1 6.65389 6.08532 -7.55054 0 0 0
2 1 6.91282 4.73928 -7.39489 0 0 0
32 6 6.82855 6.24195 -7.75799 0 0 0
34 6 7.15158 5.05392 -7.79755 0 0 0
35 6 7.44629 3.80066 -7.78398 0 0 0
81 3 10.7704 6.12678 9.83384 0 0 0
84 3 9.62986 6.65813 10.8565 0 0 0
87 3 9.51586 6.47767 11.3247 0 0 0
101 5 12.0414 6.43117 8.36417 0 0 0
109 5 10.5856 5.83152 9.88534 0 0 0
110 5 11.2064 4.1931 9.42228 0 0 0
119 5 8.6929 4.82757 11.7745 0 0 0
120 5 8.95652 4.64565 11.5526 0 0 0
121 5 8.42668 6.05908 12.6849 0 0 0
88 4 6.41091 8.34347 12.9624 0 0 0
25 1 -6.42481 -6.91701 8.08981 0 0 0
26 5 -7.59989 -7.23586 9.53355 0 0 0
33 6 7.03152 6.90247 -7.79965 0 0 0
61 6 -6.80516 -8.23544 8.22003 0 0 0
62 7 -8.32467 -8.62881 9.46635 0 0 0
71 3 9.77117 13.1769 9.98936 0 0 0
73 3 9.34061 12.6969 10.7951 0 0 0
75 3 9.18874 11.6939 11.2545 0 0 0
76 3 11.1868 8.17829 9.15295 0 0 0
77 3 11.3882 7.08057 9.07699 0 0 0
78 3 12.1075 8.7912 8.03102 0 0 0
79 3 11.9158 12.5821 7.52663 0 0 0
80 3 7.89375 10.6553 11.9997 0 0 0
82 3 11.5874 10.3204 8.38495 0 0 0
83 4 12.2498 12.4142 7.13169 0 0 0
85 4 12.4982 10.9959 7.2675 0 0 0
86 3 7.44953 9.73457 12.5834 0 0 0
89 5 10.4652 12.4682 9.51456 0 0 0
93 5 8.16268 14.1411 11.3361 0 0 0
94 5 9.55709 11.0822 10.1915 0 0 0
95 5 10.7271 13.6751 8.38434 0 0 0
97 5 7.49576 12.4535 11.4014 0 0 0
98 5 8.85957 9.80764 10.8577 0 0 0
99 5 10.9865 7.87778 9.23754 0 0 0
100 5 10.5151 8.79746 9.60387 0 0 0
102 5 11.3707 7.39286 8.91403 0 0 0
103 5 12.6214 8.51773 7.54837 0 0 0
104 5 12.504 8.61664 7.58199 0 0 0
105 5 11.9659 13.0121 7.15354 0 0 0
106 5 11.5585 12.0328 7.75386 0 0 0
107 5 8.44228 10.0833 11.3704 0 0 0
108 5 7.46415 11.1568 12.6376 0 0 0
111 5 10.2773 10.7381 8.55058 0 0 0
112 5 11.9894 10.1177 8.54712 0 0 0
114 5 8.9427 8.18799 11.3084 0 0 0
115 5 9.38889 6.63289 10.8731 0 0 0
117 5 7.63347 8.70925 12.4453 0 0 0
118 5 6.6103 9.88397 13.5717 0 0 0
60 6 -6.08604 -8.31137 7.16939 0 0 0
58 6 -6.86476 -5.17378 7.67308 0 0 0
72 3 10.4037 14.2239 9.23895 0 0 0
74 3 11.0456 13.4308 8.3943 0 0 0
90 5 9.46306 13.7861 10.0831 0 0 0
91 5 10.6214 15.3774 8.90181 0 0 0
92 5 9.23715 15.636 10.0656 0 0 0
96 5 11.6806 15.0566 7.41949 0 0 0
24 1 -6.42395 -5.95723 7.2799 0 0 0
59 6 -6.44689 -6.10659 7.02163 0 0 0
3 1 6.02436 4.28153 -6.42579 0 0 0
4 2 5.51398 5.28766 -5.49111 0 0 0
5 3 4.5085 5.44354 -5.06246 0 0 0
6 3 3.79803 6.20837 -4.44953 0 0 0
7 3 2.91012 5.91944 -3.54253 0 0 0
8 3 2.41561 4.94076 -2.94529 0 0 0
9 3 1.40184 4.60217 -2.21928 0 0 0
10 4 1.14576 5.41157 -1.32553 0 0 0
11 3 1.52798 2.96376 -1.82082 0 0 0
12 3 2.04907 2.02213 -2.2539 0 0 0
13 3 1.71525 0.916957 -1.7682 0 0 0
14 3 1.01386 0.230549 -1.03894 0 0 0
27 3 0.128285 1.32124 -0.220832 0 0 0
28 3 0.401939 2.8209 -0.674324 0 0 0
29 3 3.08937 3.4682 -3.44147 0 0 0
30 3 4.21572 3.86197 -4.59597 0 0 0
31 1 5.56417 6.61447 -6.44578 0 0 0
36 6 6.3567 3.80459 -6.69704 0 0 0
37 6 5.47959 3.60834 -5.81125 0 0 0
39 6 2.32625 6.664 -3.19249 0 0 0
40 6 2.57234 1.94635 -2.90241 0 0 0
65 6 2.93626 3.07043 -3.38797 0 0 0
66 6 4.50137 3.26235 -4.95174 0 0 0
67 6 5.48328 6.14408 -6.09491 0 0 0
64 6 -0.468429 3.76183 -0.160186 0 0 0
38 6 3.98953 7.1283 -4.88317 0 0 0
68 6 5.22274 7.36889 -6.62584 0 0 0
69 1 6.85607 8.12732 14.2071 0 0 0
122 6 5.66599 7.60335 14.5975 0 0 0
70 2 7.01209 9.19967 13.4283 0 0 0
15 5 0.667996 -1.22373 -0.38414 0 0 0
41 6 2.36601 -0.199499 -2.48937 0 0 0
ITEM: TIMESTEP
39
ITEM: NUMBER OF ATOMS
122
ITEM: BOX BOUNDS pp pp pp
0.0000000000000000e+00 2.0000000000000000e+01
0.0000000000000000e+00 2.0000000000000000e+01
0.0000000000000000e+00 2.0000000000000000e+01
ITEM: ATOMS id type xu yu zu vx vy vz
63 6 -1.25467 1.07649 0.816007 0 0 0
113 5 12.8721 13.0026 5.34226 0 0 0
116 5 13.6206 10.5663 5.54661 0 0 0
56 6 -4.44259 -7.16616 5.33188 0 0 0
57 6 -5.49593 -7.19975 6.36589 0 0 0
16 1 -0.867748 -1.09282 0.953095 0 0 0
17 1 -1.11409 -2.43446 1.36001 0 0 0
18 1 -1.69645 -2.93812 2.4236 0 0 0
19 1 -2.30193 -3.05642 3.26424 0 0 0
20 1 -3.29027 -4.14802 4.21931 0 0 0
21 1 -3.66493 -4.36192 4.84726 0 0 0
22 1 -4.89888 -5.48624 5.80606 0 0 0
23 1 -5.08239 -5.49626 6.23454 0 0 0
42 6 -1.13407 -0.45384 1.1669 0 0 0
43 6 -0.872891 -0.656921 0.928749 0 0 0
44 6 -0.71047 -3.11623 1.04304 0 0 0
45 6 -0.968741 -2.88048 1.26937 0 0 0
46 6 -2.70541 -1.51448 2.77574 0 0 0
47 6 -2.6126 -1.43668 2.52589 0 0 0
48 6 -2.13607 -4.69491 2.53866 0 0 0
49 6 -2.37781 -4.73554 2.63758 0 0 0
50 6 -4.39213 -2.75001 4.89122 0 0 0
51 6 -4.01783 -2.73911 3.42324 0 0 0
52 6 -3.59002 -5.99136 4.09989 0 0 0
53 6 -3.84263 -6.02632 4.21213 0 0 0
54 6 -5.85558 -3.99256 6.39901 0 0 0
55 6 -5.37265 -3.98166 4.96884 0 0 0
1 1 6.60769 5.96358 -7.81014 0 0 0
2 1 6.75021 4.67396 -7.34285 0 0 0
32 6 6.84772 6.22779 -7.8137 0 0 0
34 6 6.96882 5.15564 -7.81404 0 0 0
35 6 7.36474 3.57694 -7.81338 0 0 0
81 3 10.973 6.11423 9.7385 0 0 0
84 3 9.63461 6.72273 10.8139 0 0 0
87 3 9.66112 6.57661 11.2241 0 0 0
101 5 12.2449 6.28519 8.17628 0 0 0
109 5 10.8136 5.7892 9.83163 0 0 0
110 5 11.3543 3.72938 9.3086 0 0 0
119 5 8.9201 4.5472 11.8667 0 0 0
120 5 9.02422 4.35857 11.6285 0 0 0
121 5 8.68967 6.01373 13.0919 0 0 0
88 4 6.44638 8.24445 12.863 0 0 0
25 1 -6.186 -6.86218 8.25126 0 0 0
26 5 -6.99276 -7.00749 9.76171 0 0 0
33 6 6.97851 6.80839 -7.86841 0 0 0
61 6 -6.67713 -8.24361 8.41497 0 0 0
62 7 -8.10402 -8.62161 9.88289 0 0 0
71 3 9.76924 13.2352 10.0386 0 0 0
73 3 9.41044 13.0184 10.9059 0 0 0
75 3 9.35501 11.848 11.2328 0 0 0
76 3 11.1412 8.12271 9.22106 0 0 0
77 3 11.4172 7.03204 9.09468 0 0 0
78 3 12.3 8.63253 7.87147 0 0 0
79 3 11.8279 12.6046 7.46504 0 0 0
80 3 7.77681 10.7717 12.2944 0 0 0
82 3 11.3029 10.248 8.53794 0 0 0
83 4 12.0824 12.5804 7.20012 0 0 0
85 4 12.475 10.831 7.09872 0 0 0
86 3 7.44451 9.81189 12.6779 0 0 0
89 5 10.8457 12.6634 9.56709 0 0 0
93 5 7.92824 14.5584 11.7693 0 0 0
94 5 9.76986 11.0554 10.2488 0 0 0
95 5 10.1245 13.978 7.89808 0 0 0
97 5 7.10898 12.5245 11.0193 0 0 0
98 5 8.16497 9.50371 10.5292 0 0 0
99 5 10.7808 8.0204 9.3683 0 0 0
100 5 10.4894 8.68112 9.63178 0 0 0
102 5 11.2803 7.34079 8.9674 0 0 0
103 5 12.7795 8.44704 7.32006 0 0 0
104 5 12.6675 8.49988 7.24561 0 0 0
105 5 11.8989 12.7387 6.87486 0 0 0
106 5 11.6792 12.1315 7.37035 0 0 0
107 5 8.13424 10.0509 11.4286 0 0 0
108 5 7.73071 11.1857 12.7573 0 0 0
111 5 10.0169 10.5982 8.06841 0 0 0
112 5 12.2724 10.008 8.92605 0 0 0
114 5 9.47066 8.1033 11.8733 0 0 0
115 5 8.83004 6.44241 10.542 0 0 0
117 5 7.32522 8.49711 12.7285 0 0 0
118 5 6.25336 10.0023 14.0502 0 0 0
60 6 -5.94929 -8.35087 7.1338 0 0 0
58 6 -6.68871 -5.0466 7.877 0 0 0
72 3 10.3791 14.2826 9.27214 0 0 0
74 3 11.0012 13.4341 8.31653 0 0 0
90 5 9.16404 13.8463 10.0921 0 0 0
91 5 10.8586 15.8436 9.06689 0 0 0
92 5 8.94075 16.0712 10.2267 0 0 0
96 5 11.7096 15.3412 6.96591 0 0 0
24 1 -6.26451 -5.83179 7.36804 0 0 0
59 6 -6.43708 -6.2745 7.04329 0 0 0
3 1 6.00297 4.28026 -6.42458 0 0 0
4 2 5.53075 5.20167 -5.34867 0 0 0
5 3 4.5273 5.56978 -5.07573 0 0 0
6 3 3.80438 6.22398 -4.45487 0 0 0
7 3 2.90318 5.933 -3.53769 0 0 0
8 3 2.33249 5.13155 -2.88832 0 0 0
9 3 1.37547 4.7851 -2.24928 0 0 0
10 4 1.14179 5.41716 -1.32094 0 0 0
11 3 1.75877 2.78234 -2.00081 0 0 0
12 3 2.02473 1.96244 -2.21617 0 0 0
13 3 1.68162 1.00754 -1.73626 0 0 0
14 3 1.18659 -0.00118806 -1.1993 0 0 0
27 3 0.130378 1.19241 -0.0898476 0 0 0
28 3 0.433851 3.01528 -0.647537 0 0 0
29 3 3.05265 3.36419 -3.37199 0 0 0
30 3 4.32244 3.69024 -4.68266 0 0 0
31 1 5.27712 6.73492 -6.5734 0 0 0
36 6 6.45063 3.83805 -6.7715 0 0 0
37 6 5.49699 3.50792 -5.83084 0 0 0
39 6 2.32082 6.66679 -3.18872 0 0 0
40 6 2.52165 1.76047 -2.84183 0 0 0
65 6 2.96759 3.1501 -3.44228 0 0 0
66 6 4.3899 3.21142 -4.85417 0 0 0
67 6 5.51338 6.0434 -6.05592 0 0 0
64 6 -0.722064 4.01076 -0.0148246 0 0 0
38 6 3.95622 7.21385 -4.87065 0 0 0
68 6 5.08141 7.39614 -6.68586 0 0 0
69 1 6.8662 8.14338 14.2252 0 0 0
122 6 5.74486 7.76013 14.8121 0 0 0
70 2 7.00393 9.14519 13.4411 0 0 0
15 5 0.786434 -1.25326 -0.48623 0 0 0
41 6 2.45423 -0.315309 -2.58573 0 0 0
ITEM: TIMESTEP
50
ITEM: NUMBER OF ATOMS
122
ITEM: BOX BOUNDS pp pp pp
0.0000000000000000e+00 2.0000000000000000e+01
0.0000000000000000e+00 2.0000000000000000e+01
0.0000000000000000e+00 2.0000000000000000e+01
ITEM: ATOMS id type xu yu zu vx vy vz
63 6 -1.36347 1.11906 0.873205 0 0 0
113 5 12.8166 13.0262 5.23008 0 0 0
116 5 13.6953 10.5189 5.42094 0 0 0
56 6 -4.39816 -7.14801 5.29943 0 0 0
57 6 -5.48119 -7.18755 6.37857 0 0 0
16 1 -0.924925 -1.11912 0.988393 0 0 0
17 1 -1.14182 -2.40257 1.381 0 0 0
18 1 -1.63869 -2.91989 2.40965 0 0 0
19 1 -2.2505 -3.06334 3.30446 0 0 0
20 1 -3.25802 -4.08189 4.1906 0 0 0
21 1 -3.61843 -4.37936 4.91474 0 0 0
22 1 -4.87579 -5.4531 5.7401 0 0 0
23 1 -4.99512 -5.47414 6.2536 0 0 0
42 6 -1.15287 -0.483162 1.19727 0 0 0
43 6 -0.863635 -0.627583 0.926374 0 0 0
44 6 -0.69309 -3.11485 1.02534 0 0 0
45 6 -0.974596 -2.91693 1.27596 0 0 0
46 6 -2.73022 -1.49725 2.79294 0 0 0
47 6 -2.61795 -1.40217 2.51202 0 0 0
48 6 -2.13657 -4.74973 2.53129 0 0 0
49 6 -2.40387 -4.78317 2.64354 0 0 0
50 6 -4.37841 -2.73826 4.94163 0 0 0
51 6 -4.08133 -2.70388 3.35344 0 0 0
52 6 -3.57779 -6.03014 4.07806 0 0 0
53 6 -3.85966 -6.05447 4.20544 0 0 0
54 6 -5.8681 -3.9964 6.44835 0 0 0
55 6 -5.45234 -3.96797 4.89675 0 0 0
1 1 6.70325 5.84948 -8.00678 0 0 0
36 6 6.5101 3.89821 -6.77454 0 0 0
2 1 6.708 4.62186 -7.32937 0 0 0
32 6 6.91921 6.21313 -7.80729 0 0 0
34 6 6.91832 5.16734 -7.84038 0 0 0
35 6 7.35828 3.47578 -7.90743 0 0 0
81 3 11.006 6.08912 9.75585 0 0 0
87 3 9.62519 6.53594 11.2127 0 0 0
101 5 12.3295 6.19907 8.10324 0 0 0
109 5 10.7632 5.65958 9.8019 0 0 0
110 5 11.4216 3.55141 9.25377 0 0 0
119 5 9.04793 4.52246 11.8855 0 0 0
120 5 9.13447 4.33978 11.6279 0 0 0
121 5 8.79033 6.00408 13.2194 0 0 0
115 5 8.22026 6.33794 10.1978 0 0 0
88 4 6.4775 8.20344 12.8447 0 0 0
68 6 4.77927 8.20062 -6.67193 0 0 0
84 3 10.0808 7.07887 11.3429 0 0 0
26 5 -6.79775 -6.92214 9.8693 0 0 0
33 6 6.95523 6.73096 -7.94369 0 0 0
61 6 -6.63425 -8.23807 8.4713 0 0 0
62 7 -7.99622 -8.59105 10.091 0 0 0
71 3 9.79417 13.2762 10.0368 0 0 0
73 3 9.4143 13.0993 10.9527 0 0 0
75 3 9.32712 11.8343 11.1944 0 0 0
76 3 11.1497 8.0826 9.24396 0 0 0
77 3 11.4704 6.97675 9.09979 0 0 0
78 3 12.3527 8.62639 7.8491 0 0 0
79 3 11.7716 12.6332 7.45564 0 0 0
80 3 7.79919 10.79 12.3177 0 0 0
82 3 11.2237 10.2527 8.576 0 0 0
83 4 12.0893 12.6102 7.18002 0 0 0
85 4 12.4465 10.7812 7.02157 0 0 0
86 3 7.44053 9.87421 12.7732 0 0 0
89 5 10.9137 12.7987 9.54536 0 0 0
94 5 9.84978 10.9773 10.3745 0 0 0
97 5 6.99883 12.5163 10.9111 0 0 0
98 5 8.06146 9.48193 10.413 0 0 0
99 5 10.6627 8.04923 9.34662 0 0 0
100 5 10.4783 8.63252 9.59509 0 0 0
102 5 11.2317 7.34396 8.95131 0 0 0
103 5 12.8595 8.43986 7.20078 0 0 0
104 5 12.7103 8.50807 7.09376 0 0 0
105 5 11.8388 12.6533 6.77725 0 0 0
106 5 11.7097 12.1356 7.22705 0 0 0
107 5 7.99215 10.0667 11.4003 0 0 0
108 5 7.81503 11.2297 12.817 0 0 0
111 5 9.9476 10.5712 7.95662 0 0 0
112 5 12.4124 10.013 9.03003 0 0 0
114 5 9.60704 8.04559 11.9143 0 0 0
117 5 7.28015 8.42899 12.8572 0 0 0
25 1 -6.10299 -6.88479 8.3033 0 0 0
60 6 -5.8965 -8.42685 7.14122 0 0 0
93 5 7.86375 14.6216 11.9486 0 0 0
95 5 9.90389 14.0384 7.7662 0 0 0
58 6 -6.65367 -5.01086 7.94914 0 0 0
72 3 10.3498 14.3761 9.31005 0 0 0
74 3 10.9949 13.4931 8.24939 0 0 0
90 5 8.9934 13.8303 10.0693 0 0 0
91 5 10.9657 15.9024 9.11458 0 0 0
92 5 8.88911 16.1946 10.2278 0 0 0
96 5 11.7081 15.3853 6.84914 0 0 0
24 1 -6.19538 -5.77214 7.41324 0 0 0
59 6 -6.41456 -6.32208 7.05392 0 0 0
3 1 5.98904 4.18782 -6.47043 0 0 0
4 2 5.54733 5.23635 -5.32954 0 0 0
5 3 4.54122 5.58896 -5.06799 0 0 0
6 3 3.81088 6.24703 -4.46031 0 0 0
7 3 2.89587 5.95438 -3.53394 0 0 0
8 3 2.30033 5.20171 -2.86928 0 0 0
9 3 1.36874 4.80886 -2.25098 0 0 0
10 4 1.13564 5.42584 -1.3118 0 0 0
11 3 1.74404 2.72536 -1.98537 0 0 0
12 3 2.00924 1.90114 -2.18567 0 0 0
13 3 1.71698 1.02129 -1.77557 0 0 0
27 3 0.128268 1.1538 -0.0298499 0 0 0
28 3 0.411129 3.07728 -0.59056 0 0 0
29 3 3.05797 3.40356 -3.3426 0 0 0
30 3 4.34886 3.64365 -4.70153 0 0 0
37 6 5.52881 3.38359 -5.8737 0 0 0
40 6 2.51095 1.68457 -2.8303 0 0 0
65 6 2.96157 3.14097 -3.46491 0 0 0
66 6 4.33659 3.17055 -4.80945 0 0 0
67 6 5.68825 5.67816 -5.48593 0 0 0
64 6 -0.817673 4.09587 0.0363623 0 0 0
118 5 6.15792 10.0737 14.1688 0 0 0
31 1 5.02984 6.49037 -6.9813 0 0 0
39 6 2.31399 6.67133 -3.18468 0 0 0
38 6 3.92613 7.29112 -4.86128 0 0 0
122 6 5.77935 7.76155 14.8117 0 0 0
69 1 6.84743 8.13246 14.2295 0 0 0
70 2 6.99604 9.09147 13.453 0 0 0
14 3 1.3201 0.27426 -1.42336 0 0 0
15 5 0.779629 -1.61558 -0.376806 0 0 0
41 6 2.48611 -0.352277 -2.6193 0 0 0
ITEM: TIMESTEP
56
ITEM: NUMBER OF ATOMS
122
ITEM: BOX BOUNDS pp pp pp
0.0000000000000000e+00 2.0000000000000000e+01
0.0000000000000000e+00 2.0000000000000000e+01
0.0000000000000000e+00 2.0000000000000000e+01
ITEM: ATOMS id type xu yu zu vx vy vz
63 6 -1.51529 1.22479 0.933914 0 0 0
113 5 12.6981 13.111 5.03518 0 0 0
116 5 13.7933 10.4881 5.24139 0 0 0
56 6 -4.30999 -7.1131 5.33108 0 0 0
57 6 -5.52383 -7.19099 6.395 0 0 0
16 1 -0.974068 -1.21204 0.831833 0 0 0
17 1 -1.22111 -2.32801 1.43914 0 0 0
18 1 -1.56161 -2.84894 2.46579 0 0 0
19 1 -2.176 -3.20118 3.43676 0 0 0
20 1 -3.22973 -3.88293 4.09117 0 0 0
21 1 -3.55844 -4.54105 5.11495 0 0 0
22 1 -4.85966 -5.28999 5.53332 0 0 0
23 1 -4.7053 -5.5492 6.38208 0 0 0
42 6 -1.23874 -0.523648 1.31825 0 0 0
43 6 -0.772723 -0.523671 0.94758 0 0 0
44 6 -0.629764 -3.08263 0.959417 0 0 0
45 6 -1.01596 -3.06173 1.30166 0 0 0
46 6 -2.78953 -1.50901 2.85763 0 0 0
47 6 -2.58371 -1.32877 2.44092 0 0 0
48 6 -2.10899 -4.81753 2.51885 0 0 0
49 6 -2.51055 -4.8778 2.69978 0 0 0
50 6 -4.33823 -2.72484 5.02465 0 0 0
51 6 -4.18899 -2.624 3.19092 0 0 0
52 6 -3.4898 -6.03676 4.00973 0 0 0
53 6 -3.91674 -6.05295 4.13979 0 0 0
54 6 -5.8473 -3.99679 6.46834 0 0 0
55 6 -5.61448 -3.88044 4.69085 0 0 0
1 1 6.52409 5.74516 -8.16908 0 0 0
36 6 6.7276 4.02768 -6.5767 0 0 0
2 1 6.68984 4.43547 -7.37784 0 0 0
32 6 7.13265 6.1069 -7.76955 0 0 0
34 6 6.78637 5.1125 -8.00894 0 0 0
35 6 7.26705 3.33866 -8.05879 0 0 0
81 3 11.171 5.85221 9.9084 0 0 0
87 3 9.45985 6.45366 11.2379 0 0 0
101 5 12.4056 6.04757 8.08813 0 0 0
109 5 10.5276 5.54418 9.80948 0 0 0
110 5 11.5956 3.48558 9.18339 0 0 0
119 5 9.22274 4.38152 11.9909 0 0 0
120 5 9.34797 4.22269 11.6812 0 0 0
121 5 8.98707 5.98973 13.4285 0 0 0
115 5 8.23852 6.62387 10.0141 0 0 0
88 4 6.4893 8.15232 12.8303 0 0 0
68 6 4.61946 8.27871 -6.65217 0 0 0
84 3 10.073 7.10425 11.5325 0 0 0
26 5 -6.46435 -6.82602 10.1513 0 0 0
33 6 6.89211 6.75598 -8.18484 0 0 0
61 6 -6.57328 -8.06234 8.53346 0 0 0
62 7 -7.72887 -8.43754 10.4557 0 0 0
71 3 9.89689 13.4174 9.99163 0 0 0
73 3 9.37767 13.1841 11.135 0 0 0
75 3 9.04687 11.72 10.9335 0 0 0
76 3 11.2647 7.99729 9.24392 0 0 0
77 3 11.6879 6.76719 9.04528 0 0 0
78 3 12.4063 8.63848 7.9305 0 0 0
79 3 11.633 12.6616 7.3867 0 0 0
80 3 7.91363 10.8902 12.2726 0 0 0
82 3 11.1958 10.3354 8.59905 0 0 0
83 4 12.196 12.6294 7.04427 0 0 0
85 4 12.3897 10.7359 6.85183 0 0 0
86 3 7.3009 9.93712 13.132 0 0 0
89 5 11.0183 12.9921 9.61892 0 0 0
94 5 10.0403 11.0232 10.79 0 0 0
97 5 6.74785 12.3825 10.7915 0 0 0
98 5 7.96057 9.66326 10.2149 0 0 0
99 5 10.2955 8.0214 9.25626 0 0 0
100 5 10.4702 8.51439 9.44985 0 0 0
102 5 11.1405 7.4191 8.81439 0 0 0
103 5 13.0099 8.41715 7.01513 0 0 0
104 5 12.715 8.55978 6.82057 0 0 0
105 5 11.703 12.4873 6.48759 0 0 0
106 5 11.7296 12.0389 6.89578 0 0 0
107 5 7.59416 9.98473 11.2641 0 0 0
108 5 7.95237 11.3542 13.0577 0 0 0
111 5 9.82333 10.5635 7.89294 0 0 0
112 5 12.5787 10.0634 9.20676 0 0 0
114 5 9.80906 8.09284 12.0315 0 0 0
117 5 7.31241 8.38898 13.1769 0 0 0
25 1 -5.93016 -7.07499 8.38711 0 0 0
60 6 -5.75699 -8.60851 7.2014 0 0 0
93 5 7.88594 14.5971 12.2111 0 0 0
95 5 9.59854 14.0993 7.57285 0 0 0
58 6 -6.6235 -4.95846 8.0899 0 0 0
72 3 10.2226 14.7922 9.41473 0 0 0
74 3 10.8662 13.7693 8.01403 0 0 0
90 5 8.6831 13.751 9.91523 0 0 0
91 5 11.2109 15.9558 9.2204 0 0 0
92 5 8.88978 16.2833 10.1546 0 0 0
96 5 11.6838 15.42 6.6658 0 0 0
24 1 -6.00793 -5.68596 7.56154 0 0 0
59 6 -6.30102 -6.38329 7.05234 0 0 0
3 1 5.83573 4.10526 -6.49934 0 0 0
4 2 5.58663 5.30607 -5.40221 0 0 0
5 3 4.54503 5.59225 -4.93675 0 0 0
6 3 3.81564 6.38243 -4.47614 0 0 0
7 3 2.86365 6.08146 -3.52876 0 0 0
8 3 2.2201 5.34169 -2.84923 0 0 0
9 3 1.32636 4.80321 -2.20976 0 0 0
10 4 1.10272 5.46375 -1.26993 0 0 0
11 3 1.55475 2.70483 -1.89684 0 0 0
12 3 2.03241 1.79226 -2.18299 0 0 0
13 3 1.85683 0.982312 -1.90329 0 0 0
27 3 0.101139 1.13744 0.0825282 0 0 0
28 3 0.299463 3.16019 -0.34883 0 0 0
29 3 3.14811 3.5372 -3.12838 0 0 0
30 3 4.45682 3.54807 -4.7086 0 0 0
37 6 5.62242 3.00292 -6.06033 0 0 0
40 6 2.54322 1.55725 -2.8639 0 0 0
65 6 2.88433 3.05244 -3.54893 0 0 0
66 6 4.17593 2.98643 -4.7495 0 0 0
67 6 5.73027 5.74355 -5.49826 0 0 0
64 6 -1.01786 4.28441 0.128678 0 0 0
118 5 6.02003 10.2468 14.3236 0 0 0
31 1 4.85453 6.47528 -7.02527 0 0 0
39 6 2.27924 6.70503 -3.16969 0 0 0
38 6 3.86034 7.45384 -4.84516 0 0 0
122 6 5.8989 7.75062 14.7989 0 0 0
69 1 6.76394 8.0694 14.2249 0 0 0
70 2 7.02255 8.90691 13.4899 0 0 0
14 3 1.26604 0.275121 -1.42474 0 0 0
15 5 0.917676 -1.7929 -0.444453 0 0 0
41 6 2.59993 -0.451711 -2.73685 0 0 0
ITEM: TIMESTEP
75
ITEM: NUMBER OF ATOMS
122
ITEM: BOX BOUNDS pp pp pp
0.0000000000000000e+00 2.0000000000000000e+01
0.0000000000000000e+00 2.0000000000000000e+01
0.0000000000000000e+00 2.0000000000000000e+01
ITEM: ATOMS id type xu yu zu vx vy vz
27 3 0.0302513 1.34804 0.145313 0 0 0
63 6 -1.58916 1.29762 0.962952 0 0 0
64 6 -0.767221 4.1156 0.0495088 0 0 0
113 5 12.6243 13.1897 5.11483 0 0 0
105 5 10.8376 12.2897 5.61267 0 0 0
116 5 13.8363 10.5437 5.13276 0 0 0
56 6 -4.13252 -7.16112 5.40103 0 0 0
57 6 -5.51091 -7.15322 6.40943 0 0 0
96 5 11.5842 15.293 6.74281 0 0 0
16 1 -1.02777 -1.24062 0.5618 0 0 0
17 1 -1.28139 -2.41585 1.36817 0 0 0
18 1 -1.44309 -2.62102 2.71765 0 0 0
19 1 -2.0503 -3.46021 3.61101 0 0 0
20 1 -3.29668 -3.71605 4.11008 0 0 0
21 1 -3.49865 -4.7022 5.16285 0 0 0
22 1 -4.85943 -5.1185 5.39328 0 0 0
23 1 -4.36231 -5.69069 6.54731 0 0 0
42 6 -1.29232 -0.573389 1.37413 0 0 0
43 6 -0.599953 -0.49841 1.01189 0 0 0
44 6 -0.539914 -2.99294 0.887388 0 0 0
45 6 -1.16119 -3.27589 1.34348 0 0 0
46 6 -2.88981 -1.50361 3.0128 0 0 0
47 6 -2.55709 -1.21915 2.33641 0 0 0
48 6 -1.98197 -4.86589 2.4221 0 0 0
49 6 -2.68678 -4.97917 2.76123 0 0 0
50 6 -4.39687 -2.6429 5.13044 0 0 0
51 6 -4.2404 -2.59444 3.00365 0 0 0
52 6 -3.30161 -6.06666 3.9317 0 0 0
53 6 -4.12662 -6.05627 4.07829 0 0 0
54 6 -5.86289 -3.96793 6.44876 0 0 0
55 6 -5.69205 -3.75763 4.4791 0 0 0
1 1 6.34942 5.74688 -8.15541 0 0 0
31 1 4.9065 6.41172 -6.66898 0 0 0
2 1 6.64088 4.32355 -7.5512 0 0 0
32 6 7.35693 5.83691 -7.81848 0 0 0
34 6 6.38921 4.97589 -8.32381 0 0 0
35 6 7.11723 3.3275 -8.05157 0 0 0
81 3 11.2863 5.64543 10.0438 0 0 0
87 3 9.22349 6.30075 11.4927 0 0 0
101 5 12.5057 5.99575 8.08297 0 0 0
109 5 10.2625 5.35967 9.55762 0 0 0
110 5 11.9403 3.49902 9.25072 0 0 0
119 5 9.36342 4.17563 12.1728 0 0 0
120 5 9.57381 4.07225 11.8303 0 0 0
115 5 8.16732 6.90188 10.0848 0 0 0
88 4 6.46602 8.20732 12.8053 0 0 0
84 3 10.1606 7.05098 11.3423 0 0 0
33 6 6.66718 6.7998 -8.33609 0 0 0
62 7 -7.37607 -8.27259 10.8041 0 0 0
73 3 9.38891 13.1343 11.2332 0 0 0
75 3 8.3391 11.9563 10.7428 0 0 0
76 3 11.3359 7.89029 9.17215 0 0 0
77 3 11.8367 6.56452 8.97136 0 0 0
78 3 12.4404 8.68324 7.95493 0 0 0
79 3 11.1364 12.5876 7.00447 0 0 0
80 3 8.0118 10.7504 12.3102 0 0 0
82 3 11.2609 10.4686 8.52781 0 0 0
83 4 12.3812 12.6696 7.21319 0 0 0
85 4 12.4885 10.8029 6.80305 0 0 0
86 3 7.03645 10.0146 13.4751 0 0 0
89 5 11.1666 12.963 9.57764 0 0 0
94 5 10.2369 11.0471 11.1693 0 0 0
97 5 6.64605 12.2009 10.8004 0 0 0
98 5 7.93644 9.84897 9.89275 0 0 0
99 5 10.1626 7.99475 8.99597 0 0 0
100 5 10.4628 8.40704 9.25737 0 0 0
102 5 11.1682 7.44081 8.66285 0 0 0
103 5 13.1446 8.42626 7.00934 0 0 0
104 5 12.6221 8.65325 6.69887 0 0 0
106 5 11.8587 11.9876 6.48288 0 0 0
107 5 7.2739 9.90907 11.2383 0 0 0
108 5 8.0538 11.5237 13.1993 0 0 0
111 5 9.79733 10.7312 8.05762 0 0 0
112 5 12.3742 10.2591 9.39146 0 0 0
114 5 10.0808 8.13453 12.0917 0 0 0
117 5 7.49858 8.55734 13.4977 0 0 0
26 5 -6.10516 -6.7552 10.4147 0 0 0
61 6 -6.40464 -7.90193 8.67762 0 0 0
25 1 -5.60608 -7.23425 8.55063 0 0 0
60 6 -5.61945 -8.70803 7.32288 0 0 0
71 3 9.93159 13.548 9.92608 0 0 0
93 5 7.97113 14.5239 12.3391 0 0 0
95 5 9.32839 14.2166 7.42648 0 0 0
72 3 10.2143 15.1741 9.36339 0 0 0
74 3 10.7095 14.2951 7.60542 0 0 0
90 5 8.59755 13.5634 9.78524 0 0 0
91 5 11.4932 16.0455 9.38734 0 0 0
92 5 8.96978 16.2248 9.98758 0 0 0
58 6 -6.56221 -4.96149 8.1931 0 0 0
24 1 -5.68339 -5.71814 7.77715 0 0 0
59 6 -6.14879 -6.2885 6.97406 0 0 0
3 1 5.79818 4.02746 -6.54303 0 0 0
4 2 5.37334 5.50834 -5.62058 0 0 0
5 3 4.48869 5.50612 -4.85717 0 0 0
6 3 3.78077 6.55723 -4.44938 0 0 0
7 3 2.78609 6.26072 -3.52426 0 0 0
8 3 2.18438 5.33328 -2.91295 0 0 0
9 3 1.23527 4.93845 -2.1769 0 0 0
10 4 1.02588 5.56359 -1.1765 0 0 0
11 3 1.31914 2.86808 -1.78648 0 0 0
12 3 2.05994 1.81953 -2.25816 0 0 0
13 3 1.88763 0.654028 -1.92133 0 0 0
28 3 0.0159808 3.37992 -0.207837 0 0 0
29 3 3.35736 3.6603 -2.79607 0 0 0
30 3 4.54023 3.40659 -4.57289 0 0 0
37 6 5.60414 2.85342 -6.27876 0 0 0
40 6 2.7176 1.56383 -3.02965 0 0 0
65 6 2.80418 3.15454 -3.61463 0 0 0
66 6 3.79719 2.72454 -4.55656 0 0 0
67 6 5.756 5.83383 -5.84323 0 0 0
14 3 1.0486 -0.107576 -1.10224 0 0 0
36 6 6.90638 4.06567 -6.19321 0 0 0
121 5 9.10608 6.0102 13.7492 0 0 0
68 6 4.55969 7.80367 -6.66785 0 0 0
118 5 5.88492 10.4133 14.4102 0 0 0
39 6 2.18831 6.82945 -3.13619 0 0 0
38 6 3.84457 7.58172 -4.85604 0 0 0
122 6 6.00491 7.6931 14.8733 0 0 0
69 1 6.69106 8.01092 14.1876 0 0 0
70 2 7.36993 8.50512 13.4549 0 0 0
15 5 1.0257 -1.69844 -0.592455 0 0 0
41 6 2.84767 -0.51367 -2.99 0 0 0
ITEM: TIMESTEP
80
ITEM: NUMBER OF ATOMS
122
ITEM: BOX BOUNDS pp pp pp
0.0000000000000000e+00 2.0000000000000000e+01
0.0000000000000000e+00 2.0000000000000000e+01
0.0000000000000000e+00 2.0000000000000000e+01
ITEM: ATOMS id type xu yu zu vx vy vz
27 3 0.00431626 1.35309 0.154959 0 0 0
63 6 -1.63549 1.31916 0.993086 0 0 0
64 6 -0.723941 4.11489 0.0426487 0 0 0
113 5 12.6528 13.2659 5.04731 0 0 0
105 5 10.7127 12.2273 5.54859 0 0 0
116 5 13.8759 10.5599 5.10259 0 0 0
56 6 -4.0337 -7.18836 5.43013 0 0 0
57 6 -5.47556 -7.15802 6.40987 0 0 0
96 5 11.555 15.3211 6.77499 0 0 0
16 1 -1.03758 -1.2512 0.50241 0 0 0
17 1 -1.30266 -2.46486 1.36015 0 0 0
18 1 -1.40649 -2.48083 2.83885 0 0 0
19 1 -1.9716 -3.58132 3.66169 0 0 0
20 1 -3.31579 -3.63181 4.16769 0 0 0
21 1 -3.48363 -4.75689 5.12031 0 0 0
22 1 -4.84858 -5.0621 5.39018 0 0 0
23 1 -4.27802 -5.74113 6.59502 0 0 0
42 6 -1.28159 -0.594618 1.3247 0 0 0
43 6 -0.502748 -0.526891 1.02019 0 0 0
44 6 -0.480333 -2.95154 0.867708 0 0 0
45 6 -1.2695 -3.38592 1.34877 0 0 0
46 6 -2.94096 -1.47737 3.13514 0 0 0
47 6 -2.58118 -1.17669 2.29175 0 0 0
48 6 -1.88148 -4.86739 2.33932 0 0 0
49 6 -2.78228 -4.98116 2.74074 0 0 0
50 6 -4.4475 -2.5868 5.19345 0 0 0
51 6 -4.22912 -2.64808 2.89907 0 0 0
52 6 -3.19725 -6.14387 3.9322 0 0 0
53 6 -4.2974 -6.05796 4.09018 0 0 0
54 6 -5.89178 -3.96695 6.46478 0 0 0
55 6 -5.67894 -3.73377 4.41009 0 0 0
1 1 6.34456 5.73023 -8.17212 0 0 0
31 1 4.87628 6.35009 -6.6896 0 0 0
2 1 6.5963 4.32999 -7.64067 0 0 0
32 6 7.37927 5.66314 -7.8252 0 0 0
34 6 6.05513 4.84831 -8.48739 0 0 0
35 6 7.08353 3.33907 -8.04674 0 0 0
81 3 11.2375 5.61609 10.0132 0 0 0
87 3 9.24101 6.24949 11.6488 0 0 0
101 5 12.5447 5.99146 8.08466 0 0 0
109 5 10.1335 5.22423 9.44123 0 0 0
110 5 12.1175 3.54108 9.36199 0 0 0
119 5 9.41967 4.09468 12.2563 0 0 0
120 5 9.70329 4.03273 11.9096 0 0 0
115 5 8.14946 7.00879 10.1729 0 0 0
88 4 6.49178 8.2691 12.8368 0 0 0
84 3 10.2058 6.98789 11.2675 0 0 0
33 6 6.512 6.80392 -8.31711 0 0 0
62 7 -7.19112 -8.20916 10.9876 0 0 0
73 3 9.34198 13.0841 11.1903 0 0 0
75 3 8.02708 12.0449 10.7433 0 0 0
76 3 11.3691 7.87634 9.1017 0 0 0
77 3 11.8625 6.51463 8.9477 0 0 0
78 3 12.4549 8.71207 7.92104 0 0 0
79 3 10.9857 12.6255 6.80389 0 0 0
80 3 7.92032 10.6981 12.2837 0 0 0
82 3 11.2562 10.4928 8.48634 0 0 0