ITEM: TIMESTEP
0
ITEM: NUMBER OF ATOMS
122
ITEM: BOX BOUNDS pp pp pp
0.0000000000000000e+00 2.0000000000000000e+01
0.0000000000000000e+00 2.0000000000000000e+01
0.0000000000000000e+00 2.0000000000000000e+01
ITEM: ATOMS id type xu yu zu vx vy vz
27 3 0.00431626 1.35309 0.154959 0 -0 0
63 6 -1.63549 1.31916 0.993086 0 0 -0
64 6 -0.723941 4.11489 0.0426487 -0 0 -0
113 5 12.6528 13.2659 5.04731 -0 -0 0
105 5 10.7127 12.2273 5.54859 -0 0 -0
104 5 12.5696 8.72227 6.66091 0 0 0
106 5 11.8526 12.0026 6.35916 0 0 -0
116 5 13.8759 10.5599 5.10259 -0 0 -0
56 6 -4.0337 -7.18836 5.43013 0 0 0
57 6 -5.47556 -7.15802 6.40987 0 0 -0
16 1 -1.03758 -1.2512 0.50241 0 0 -0
17 1 -1.30266 -2.46486 1.36015 -0 0 0
18 1 -1.40649 -2.48083 2.83885 0 0 -0
19 1 -1.9716 -3.58132 3.66169 0 -0 0
20 1 -3.31579 -3.63181 4.16769 -0 -0 0
21 1 -3.48363 -4.75689 5.12031 0 -0 -0
22 1 -4.84858 -5.0621 5.39018 0 0 -0
23 1 -4.27802 -5.74113 6.59502 -0 -0 -0
42 6 -1.28159 -0.594618 1.3247 -0 -0 -0
43 6 -0.502748 -0.526891 1.02019 -0 0 0
44 6 -0.480333 -2.95154 0.867708 0 -0 0
45 6 -1.2695 -3.38592 1.34877 -0 0 -0
46 6 -2.94096 -1.47737 3.13514 -0 0 0
47 6 -2.58118 -1.17669 2.29175 0 0 0
48 6 -1.88148 -4.86739 2.33932 0 -0 -0
49 6 -2.78228 -4.98116 2.74074 -0 0 -0
50 6 -4.4475 -2.5868 5.19345 -0 -0 -0
51 6 -4.22912 -2.64808 2.89907 -0 -0 0
52 6 -3.19725 -6.14387 3.9322 -0 0 -0
53 6 -4.2974 -6.05796 4.09018 0 0 0
54 6 -5.89178 -3.96695 6.46478 0 0 0
55 6 -5.67894 -3.73377 4.41009 -0 -0 0
1 1 6.34456 5.73023 -8.17212 0 -0 -0
31 1 4.87628 6.35009 -6.6896 0 0 -0
2 1 6.5963 4.32999 -7.64067 0 0 0
34 6 6.05513 4.84831 -8.48739 -0 0 -0
32 6 7.37927 5.66314 -7.8252 0 0 0
35 6 7.08353 3.33907 -8.04674 -0 -0 -0
81 3 11.2375 5.61609 10.0132 -0 -0 0
87 3 9.24101 6.24949 11.6488 -0 0 0
101 5 12.5447 5.99146 8.08466 0 0 -0
109 5 10.1335 5.22423 9.44123 0 0 0
110 5 12.1175 3.54108 9.36199 -0 -0 -0
119 5 9.41967 4.09468 12.2563 -0 0 -0
120 5 9.70329 4.03273 11.9096 0 -0 0
77 3 11.8625 6.51463 8.9477 0 0 0
88 4 6.49178 8.2691 12.8368 0 -0 -0
33 6 6.512 6.80392 -8.31711 0 -0 -0
97 5 6.5124 12.2311 10.8384 -0 -0 0
115 5 8.14946 7.00879 10.1729 0 -0 -0
84 3 10.2058 6.98789 11.2675 -0 -0 0
62 7 -7.19112 -8.20916 10.9876 -0 -0 -0
73 3 9.34198 13.0841 11.1903 -0 -0 0
75 3 8.02708 12.0449 10.7433 -0 0 -0
76 3 11.3691 7.87634 9.1017 0 0 0
78 3 12.4549 8.71207 7.92104 -0 0 0
79 3 10.9857 12.6255 6.80389 -0 0 -0
80 3 7.92032 10.6981 12.2837 0 0 0
82 3 11.2562 10.4928 8.48634 -0 0 0
83 4 12.315 12.7467 7.11732 0 -0 -0
85 4 12.5175 10.8718 6.77435 0 0 0
89 5 11.2496 12.903 9.51524 0 -0 -0
94 5 10.3109 11.0546 11.3521 0 0 0
98 5 7.94365 9.95112 9.78459 -0 -0 -0
99 5 10.1606 7.89806 8.85575 -0 -0 -0
100 5 10.4703 8.35175 9.12312 -0 -0 -0
102 5 11.2019 7.38787 8.61489 0 -0 0
103 5 13.2346 8.46823 7.059 -0 -0 0
107 5 7.20815 9.8579 11.2904 -0 -0 0
108 5 8.08652 11.5234 13.2119 -0 -0 0
111 5 9.81958 10.8576 8.15509 -0 -0 0
112 5 12.2147 10.4332 9.46097 -0 0 -0
114 5 10.2383 8.06768 12.0573 0 0 -0
70 2 7.64289 8.1252 13.2743 0 0 -0
26 5 -5.8996 -6.74702 10.4751 0 0 0
61 6 -6.44588 -7.75463 8.66515 0 -0 -0
25 1 -5.5483 -7.25955 8.58777 0 0 0
60 6 -5.5793 -8.73559 7.38169 0 0 -0
96 5 11.555 15.3211 6.77499 -0 0 0
71 3 9.99475 13.5785 9.84965 0 -0 0
93 5 8.02762 14.5044 12.369 -0 -0 0
95 5 9.20792 14.3418 7.37084 -0 0 -0
72 3 10.2736 15.2514 9.28786 0 -0 0
74 3 10.6013 14.3997 7.51488 0 0 -0
90 5 8.64966 13.4466 9.75503 -0 0 0
91 5 11.6019 16.0487 9.44626 0 -0 0
92 5 9.01904 16.1842 9.86269 0 -0 -0
58 6 -6.48366 -4.99328 8.23689 0 0 -0
24 1 -5.57007 -5.75864 7.83621 -0 0 -0
59 6 -6.11693 -6.27406 6.976 0 -0 0
3 1 5.82932 3.99654 -6.49891 0 -0 0
4 2 5.26112 5.49031 -5.65823 0 -0 -0
5 3 4.42162 5.43677 -4.78611 0 -0 -0
6 3 3.7652 6.59593 -4.41851 -0 -0 -0
7 3 2.73379 6.32529 -3.51794 -0 0 -0
8 3 2.16171 5.36065 -2.94611 0 0 -0
9 3 1.2055 4.99578 -2.1684 0 -0 0
10 4 0.983939 5.62613 -1.1435 0 -0 -0
11 3 1.2733 2.90724 -1.80168 0 0 -0
12 3 2.03459 1.78888 -2.32105 0 0 -0
13 3 1.91531 0.534698 -1.96073 -0 -0 -0
29 3 3.45853 3.6344 -2.66033 0 -0 0
30 3 4.45726 3.32467 -4.47759 0 -0 -0
37 6 5.56945 2.86122 -6.35303 0 -0 -0
40 6 2.80375 1.60174 -3.11167 0 -0 0
65 6 2.76799 3.26299 -3.52084 0 0 0
66 6 3.61285 2.60871 -4.38213 0 -0 -0
67 6 5.81359 5.85912 -6.00171 0 -0 0
36 6 6.91062 4.09829 -6.02615 -0 0 -0
121 5 9.14167 6.08903 13.9123 -0 0 -0
28 3 -0.0163804 3.43258 -0.205922 0 0 -0
68 6 4.55009 7.6056 -6.66518 -0 -0 -0
118 5 5.8015 10.5043 14.4436 -0 0 0
39 6 2.13181 6.91573 -3.12172 -0 0 -0
38 6 3.8571 7.61785 -4.85217 -0 0 -0
122 6 6.05427 7.64771 14.9081 -0 0 -0
86 3 6.97178 10.0715 13.6087 0 -0 -0
117 5 7.6026 8.71542 13.6961 -0 -0 0
69 1 6.66749 8.01359 14.1829 -0 0 -0
14 3 1.03535 -0.0804056 -1.01612 0 0 -0
15 5 1.03231 -1.70648 -0.623611 0 0 0
41 6 2.96677 -0.487748 -3.11055 -0 0 -0
