LAMMPS (8 Feb 2023)
OMP_NUM_THREADS environment is not set. Defaulting to 1 thread. (src/comm.cpp:98)
  using 1 OpenMP thread(s) per MPI task
units                real
atom_style           full
boundary             p p p
dielectric           1
special_bonds        lj/coul 0.0 0.0 1.0

pair_style           lj/charmm/coul/long/opt 9 10.00000
bond_style           harmonic
angle_style          harmonic
dihedral_style       harmonic
improper_style       umbrella
kspace_style         pppm 0.0001

read_data            data.oleic_xligand.test
Reading data file ...
  orthogonal box = (0 0 0) to (60 60 60)
  1 by 1 by 1 MPI processor grid
  reading atoms ...
  122 atoms
  scanning bonds ...
  4 = max bonds/atom
  scanning angles ...
  6 = max angles/atom
  scanning dihedrals ...
  15 = max dihedrals/atom
  scanning impropers ...
  3 = max impropers/atom
  reading bonds ...
  123 bonds
  reading angles ...
  228 angles
  reading dihedrals ...
  329 dihedrals
  reading impropers ...
  48 impropers
Finding 1-2 1-3 1-4 neighbors ...
  special bond factors lj:    0        0        1       
  special bond factors coul:  0        0        1       
     4 = max # of 1-2 neighbors
     8 = max # of 1-3 neighbors
    11 = max # of special neighbors
  special bonds CPU = 0.000 seconds
  read_data CPU = 0.005 seconds



pair_modify          mix geometric
neighbor             2.0 multi
neigh_modify         every 2 delay 4 check yes
thermo_style         multi
thermo_modify        line multi format float %14.6f flush yes
variable             input string in.oleic_xligand.test
variable             sname string oleic_xligand.test


timestep             1

timestep             1

print                .
.
print                ==========================================
==========================================
print                "500 steps CG Minimization"
500 steps CG Minimization
print                ==========================================
==========================================
print                .
.

dump                 1 all custom 25 ${sname}.min.lammps id type xu yu zu vx vy vz
dump                 1 all custom 25 oleic_xligand.test.min.lammps id type xu yu zu vx vy vz
thermo               10
min_style            sd
minimize             1.0e-4 1.0e-4 500 5000

CITE-CITE-CITE-CITE-CITE-CITE-CITE-CITE-CITE-CITE-CITE-CITE-CITE

Your simulation uses code contributions which should be cited:

- neighbor multi command: doi:10.1016/j.cpc.2008.03.005, doi:10.1007/s40571-020-00361-2

@Article{Intveld08,
 author =  {in 't Veld, P. J. and S. J.~Plimpton and G. S. Grest},
 title =   {Accurate and Efficient Methods for Modeling Colloidal
            Mixtures in an Explicit Solvent using Molecular Dynamics},
 journal = {Comput.\ Phys.\ Commut.},
 year =    2008,
 volume =  179,
 pages =   {320--329}
}

@article{Shire2020,
 author = {Shire, Tom and Hanley, Kevin J. and Stratford, Kevin},
 title = {{DEM} Simulations of Polydisperse Media: Efficient Contact
          Detection Applied to Investigate the Quasi-Static Limit},
 journal = {Computational Particle Mechanics},
 year = {2020}
}

CITE-CITE-CITE-CITE-CITE-CITE-CITE-CITE-CITE-CITE-CITE-CITE-CITE

Switching to 'neigh_modify every 1 delay 0 check yes' setting during minimization
PPPM initialization ...
WARNING: System is not charge neutral, net charge = -0.0006 (src/kspace.cpp:327)
  using 12-bit tables for long-range coulomb (src/kspace.cpp:342)
  G vector (1/distance) = 0.063991812
  grid = 3 3 3
  stencil order = 5
  estimated absolute RMS force accuracy = 0.036397473
  estimated relative force accuracy = 0.00010960991
  using double precision FFTW3
  3d grid and FFT values/proc = 512 27
Generated 28 of 28 mixed pair_coeff terms from geometric mixing rule
Neighbor list info ...
  update: every = 1 steps, delay = 0 steps, check = yes
  max neighbors/atom: 2000, page size: 100000
  master list distance cutoff = 12
  ghost atom cutoff = 12
  binsize = 6, bins = 10 10 10
  1 neighbor lists, perpetual/occasional/extra = 1 0 0
  (1) pair lj/charmm/coul/long/opt, perpetual
      attributes: half, newton on
      pair build: half/multi/newton
      stencil: half/multi/3d
      bin: multi
Per MPI rank memory allocation (min/avg/max) = 17.25 | 17.25 | 17.25 Mbytes
------------ Step              0 ----- CPU =            0 (sec) -------------
TotEng   =     198.969939 KinEng   =       0.000000 Temp     =       0.000000 
PotEng   =     198.969939 E_bond   =      28.228952 E_angle  =      14.755458 
E_dihed  =      16.230080 E_impro  =       0.012484 E_vdwl   =     148.696826 
E_coul   =       2.396956 E_long   =     -11.350816 Press    =     164.127681
------------ Step             10 ----- CPU =  0.002686807 (sec) -------------
TotEng   =     134.241082 KinEng   =       0.000000 Temp     =       0.000000 
PotEng   =     134.241082 E_bond   =       5.654114 E_angle  =      12.651650 
E_dihed  =      17.783370 E_impro  =       0.068190 E_vdwl   =     106.726226 
E_coul   =       2.708272 E_long   =     -11.350740 Press    =     114.540302
------------ Step             20 ----- CPU =  0.005354378 (sec) -------------
TotEng   =     127.775708 KinEng   =       0.000000 Temp     =       0.000000 
PotEng   =     127.775708 E_bond   =       5.851578 E_angle  =      12.813784 
E_dihed  =      18.656033 E_impro  =       0.077146 E_vdwl   =      98.961702 
E_coul   =       2.766206 E_long   =     -11.350740 Press    =      97.514648
------------ Step             30 ----- CPU =  0.008224855 (sec) -------------
TotEng   =     123.535509 KinEng   =       0.000000 Temp     =       0.000000 
PotEng   =     123.535509 E_bond   =       6.387875 E_angle  =      13.185128 
E_dihed  =      19.455399 E_impro  =       0.082932 E_vdwl   =      93.058607 
E_coul   =       2.716334 E_long   =     -11.350767 Press    =      81.162843
------------ Step             40 ----- CPU =    0.0108928 (sec) -------------
TotEng   =     117.982673 KinEng   =       0.000000 Temp     =       0.000000 
PotEng   =     117.982673 E_bond   =       8.080483 E_angle  =      15.410005 
E_dihed  =      20.780524 E_impro  =       0.087512 E_vdwl   =      82.357278 
E_coul   =       2.617813 E_long   =     -11.350942 Press    =      47.021865
------------ Step             50 ----- CPU =   0.01373794 (sec) -------------
TotEng   =     117.505070 KinEng   =       0.000000 Temp     =       0.000000 
PotEng   =     117.505070 E_bond   =       8.214416 E_angle  =      15.631452 
E_dihed  =      20.818641 E_impro  =       0.086454 E_vdwl   =      81.486230 
E_coul   =       2.618837 E_long   =     -11.350960 Press    =      43.973034
------------ Step             60 ----- CPU =   0.01641684 (sec) -------------
TotEng   =     117.273731 KinEng   =       0.000000 Temp     =       0.000000 
PotEng   =     117.273731 E_bond   =       8.298293 E_angle  =      15.739636 
E_dihed  =      20.838901 E_impro  =       0.086139 E_vdwl   =      81.042690 
E_coul   =       2.619035 E_long   =     -11.350963 Press    =      42.351505
------------ Step             70 ----- CPU =   0.01907155 (sec) -------------
TotEng   =     117.038668 KinEng   =       0.000000 Temp     =       0.000000 
PotEng   =     117.038668 E_bond   =       8.377562 E_angle  =      15.842668 
E_dihed  =      20.858132 E_impro  =       0.085949 E_vdwl   =      80.626181 
E_coul   =       2.599141 E_long   =     -11.350965 Press    =      40.820919
------------ Step             80 ----- CPU =   0.02193177 (sec) -------------
TotEng   =     116.833528 KinEng   =       0.000000 Temp     =       0.000000 
PotEng   =     116.833528 E_bond   =       8.454484 E_angle  =      15.942701 
E_dihed  =      20.876324 E_impro  =       0.085839 E_vdwl   =      80.225779 
E_coul   =       2.599366 E_long   =     -11.350966 Press    =      39.348690
------------ Step             90 ----- CPU =   0.02457298 (sec) -------------
TotEng   =     116.635292 KinEng   =       0.000000 Temp     =       0.000000 
PotEng   =     116.635292 E_bond   =       8.529774 E_angle  =      16.040819 
E_dihed  =      20.893282 E_impro  =       0.085781 E_vdwl   =      79.836973 
E_coul   =       2.599628 E_long   =     -11.350966 Press    =      37.913240
------------ Step            100 ----- CPU =   0.02742832 (sec) -------------
TotEng   =     116.443462 KinEng   =       0.000000 Temp     =       0.000000 
PotEng   =     116.443462 E_bond   =       8.603349 E_angle  =      16.137058 
E_dihed  =      20.908661 E_impro  =       0.085754 E_vdwl   =      79.459665 
E_coul   =       2.599938 E_long   =     -11.350964 Press    =      36.513732
------------ Step            110 ----- CPU =   0.03009583 (sec) -------------
TotEng   =     116.259179 KinEng   =       0.000000 Temp     =       0.000000 
PotEng   =     116.259179 E_bond   =       8.674563 E_angle  =      16.230708 
E_dihed  =      20.922068 E_impro  =       0.085744 E_vdwl   =      79.096760 
E_coul   =       2.600297 E_long   =     -11.350961 Press    =      35.160702
------------ Step            120 ----- CPU =   0.03275735 (sec) -------------
TotEng   =     116.084379 KinEng   =       0.000000 Temp     =       0.000000 
PotEng   =     116.084379 E_bond   =       8.742526 E_angle  =      16.320680 
E_dihed  =      20.933183 E_impro  =       0.085740 E_vdwl   =      78.752497 
E_coul   =       2.600709 E_long   =     -11.350957 Press    =      33.870155
------------ Step            124 ----- CPU =   0.04121683 (sec) -------------
TotEng   =     116.034083 KinEng   =       0.000000 Temp     =       0.000000 
PotEng   =     116.034083 E_bond   =       8.761245 E_angle  =      16.374960 
E_dihed  =      20.936097 E_impro  =       0.084878 E_vdwl   =      78.627282 
E_coul   =       2.600567 E_long   =     -11.350945 Press    =      33.297538
Loop time of 0.0412278 on 1 procs for 124 steps with 122 atoms

99.8% CPU use with 1 MPI tasks x 1 OpenMP threads

Minimization stats:
  Stopping criterion = linesearch alpha is zero
  Energy initial, next-to-last, final = 
      198.969939450019   116.034082780606   116.034082780606
  Force two-norm initial, final = 411.95394 5.9888814
  Force max component initial, final = 110.02927 1.5495471
  Final line search alpha, max atom move = 2.4041155e-10 3.7252903e-10
  Iterations, force evaluations = 124 302

MPI task timing breakdown:
Section |  min time  |  avg time  |  max time  |%varavg| %total
---------------------------------------------------------------
Pair    | 0.017432   | 0.017432   | 0.017432   |   0.0 | 42.28
Bond    | 0.0097606  | 0.0097606  | 0.0097606  |   0.0 | 23.67
Kspace  | 0.012181   | 0.012181   | 0.012181   |   0.0 | 29.55
Neigh   | 0          | 0          | 0          |   0.0 |  0.00
Comm    | 0.00024681 | 0.00024681 | 0.00024681 |   0.0 |  0.60
Output  | 0.0009275  | 0.0009275  | 0.0009275  |   0.0 |  2.25
Modify  | 0          | 0          | 0          |   0.0 |  0.00
Other   |            | 0.0006794  |            |       |  1.65

Nlocal:            122 ave         122 max         122 min
Histogram: 1 0 0 0 0 0 0 0 0 0
Nghost:            192 ave         192 max         192 min
Histogram: 1 0 0 0 0 0 0 0 0 0
Neighs:           2914 ave        2914 max        2914 min
Histogram: 1 0 0 0 0 0 0 0 0 0

Total # of neighbors = 2914
Ave neighs/atom = 23.885246
Ave special neighs/atom = 5.7540984
Neighbor list builds = 0
Dangerous builds = 0
min_style            cg
minimize             1.0e-4 1.0e-4 500 5000
Switching to 'neigh_modify every 1 delay 0 check yes' setting during minimization
PPPM initialization ...
  using 12-bit tables for long-range coulomb (src/kspace.cpp:342)
  G vector (1/distance) = 0.063991812
  grid = 3 3 3
  stencil order = 5
  estimated absolute RMS force accuracy = 0.036397473
  estimated relative force accuracy = 0.00010960991
  using double precision FFTW3
  3d grid and FFT values/proc = 512 27
Generated 28 of 28 mixed pair_coeff terms from geometric mixing rule
Per MPI rank memory allocation (min/avg/max) = 17.25 | 17.25 | 17.25 Mbytes
------------ Step            124 ----- CPU =            0 (sec) -------------
TotEng   =     116.034083 KinEng   =       0.000000 Temp     =       0.000000 
PotEng   =     116.034083 E_bond   =       8.761245 E_angle  =      16.374960 
E_dihed  =      20.936097 E_impro  =       0.084878 E_vdwl   =      78.627282 
E_coul   =       2.600567 E_long   =     -11.350945 Press    =      33.297538
------------ Step            125 ----- CPU =  0.007977464 (sec) -------------
TotEng   =     116.034083 KinEng   =       0.000000 Temp     =       0.000000 
PotEng   =     116.034083 E_bond   =       8.761245 E_angle  =      16.374960 
E_dihed  =      20.936097 E_impro  =       0.084878 E_vdwl   =      78.627282 
E_coul   =       2.600567 E_long   =     -11.350945 Press    =      33.297538
Loop time of 0.0079889 on 1 procs for 1 steps with 122 atoms

99.8% CPU use with 1 MPI tasks x 1 OpenMP threads

Minimization stats:
  Stopping criterion = linesearch alpha is zero
  Energy initial, next-to-last, final = 
      116.034082780606   116.034082780606   116.034082780606
  Force two-norm initial, final = 5.9888814 5.9888814
  Force max component initial, final = 1.5495471 1.5495471
  Final line search alpha, max atom move = 2.4041155e-10 3.7252903e-10
  Iterations, force evaluations = 1 56

MPI task timing breakdown:
Section |  min time  |  avg time  |  max time  |%varavg| %total
---------------------------------------------------------------
Pair    | 0.0033299  | 0.0033299  | 0.0033299  |   0.0 | 41.68
Bond    | 0.0020517  | 0.0020517  | 0.0020517  |   0.0 | 25.68
Kspace  | 0.0022869  | 0.0022869  | 0.0022869  |   0.0 | 28.63
Neigh   | 0          | 0          | 0          |   0.0 |  0.00
Comm    | 4.6122e-05 | 4.6122e-05 | 4.6122e-05 |   0.0 |  0.58
Output  | 0          | 0          | 0          |   0.0 |  0.00
Modify  | 0          | 0          | 0          |   0.0 |  0.00
Other   |            | 0.0002743  |            |       |  3.43

Nlocal:            122 ave         122 max         122 min
Histogram: 1 0 0 0 0 0 0 0 0 0
Nghost:            192 ave         192 max         192 min
Histogram: 1 0 0 0 0 0 0 0 0 0
Neighs:           2905 ave        2905 max        2905 min
Histogram: 1 0 0 0 0 0 0 0 0 0

Total # of neighbors = 2905
Ave neighs/atom = 23.811475
Ave special neighs/atom = 5.7540984
Neighbor list builds = 0
Dangerous builds = 0
#now                 minimize the entire system
minimize             1.0e-4 1.0e-4 500 5000
Switching to 'neigh_modify every 1 delay 0 check yes' setting during minimization
PPPM initialization ...
  using 12-bit tables for long-range coulomb (src/kspace.cpp:342)
  G vector (1/distance) = 0.063991812
  grid = 3 3 3
  stencil order = 5
  estimated absolute RMS force accuracy = 0.036397473
  estimated relative force accuracy = 0.00010960991
  using double precision FFTW3
  3d grid and FFT values/proc = 512 27
Generated 28 of 28 mixed pair_coeff terms from geometric mixing rule
Per MPI rank memory allocation (min/avg/max) = 17.25 | 17.25 | 17.25 Mbytes
------------ Step            125 ----- CPU =            0 (sec) -------------
TotEng   =     116.034083 KinEng   =       0.000000 Temp     =       0.000000 
PotEng   =     116.034083 E_bond   =       8.761245 E_angle  =      16.374960 
E_dihed  =      20.936097 E_impro  =       0.084878 E_vdwl   =      78.627282 
E_coul   =       2.600567 E_long   =     -11.350945 Press    =      33.297538
------------ Step            126 ----- CPU =  0.007711586 (sec) -------------
TotEng   =     116.034083 KinEng   =       0.000000 Temp     =       0.000000 
PotEng   =     116.034083 E_bond   =       8.761245 E_angle  =      16.374960 
E_dihed  =      20.936097 E_impro  =       0.084878 E_vdwl   =      78.627282 
E_coul   =       2.600567 E_long   =     -11.350945 Press    =      33.297538
Loop time of 0.00772318 on 1 procs for 1 steps with 122 atoms

99.8% CPU use with 1 MPI tasks x 1 OpenMP threads

Minimization stats:
  Stopping criterion = linesearch alpha is zero
  Energy initial, next-to-last, final = 
      116.034082780606   116.034082780606   116.034082780606
  Force two-norm initial, final = 5.9888814 5.9888814
  Force max component initial, final = 1.5495471 1.5495471
  Final line search alpha, max atom move = 2.4041155e-10 3.7252903e-10
  Iterations, force evaluations = 1 56

MPI task timing breakdown:
Section |  min time  |  avg time  |  max time  |%varavg| %total
---------------------------------------------------------------
Pair    | 0.0032791  | 0.0032791  | 0.0032791  |   0.0 | 42.46
Bond    | 0.0018169  | 0.0018169  | 0.0018169  |   0.0 | 23.52
Kspace  | 0.0023145  | 0.0023145  | 0.0023145  |   0.0 | 29.97
Neigh   | 0          | 0          | 0          |   0.0 |  0.00
Comm    | 4.6917e-05 | 4.6917e-05 | 4.6917e-05 |   0.0 |  0.61
Output  | 0          | 0          | 0          |   0.0 |  0.00
Modify  | 0          | 0          | 0          |   0.0 |  0.00
Other   |            | 0.0002657  |            |       |  3.44

Nlocal:            122 ave         122 max         122 min
Histogram: 1 0 0 0 0 0 0 0 0 0
Nghost:            192 ave         192 max         192 min
Histogram: 1 0 0 0 0 0 0 0 0 0
Neighs:           2905 ave        2905 max        2905 min
Histogram: 1 0 0 0 0 0 0 0 0 0

Total # of neighbors = 2905
Ave neighs/atom = 23.811475
Ave special neighs/atom = 5.7540984
Neighbor list builds = 0
Dangerous builds = 0
undump               1

print                .
.
print                =====================================
=====================================
print                "NVT dynamics to heat system"
NVT dynamics to heat system
print                =====================================
=====================================
print                .
.

reset_timestep       0
fix                  shakeH all shake 0.0001 20 500 m 1.0079
Finding SHAKE clusters ...
      12 = # of size 2 clusters
      28 = # of size 3 clusters
       1 = # of size 4 clusters
       0 = # of frozen angles
  find clusters CPU = 0.000 seconds
velocity             all create 0.0 12345678 dist uniform
thermo               100
thermo_style         multi
WARNING: New thermo_style command, previous thermo_modify settings will be lost (src/output.cpp:896)
dump                 1 all custom 1000 ${sname}.heat.lammpstrj id type xu yu zu vx vy vz
dump                 1 all custom 1000 oleic_xligand.test.heat.lammpstrj id type xu yu zu vx vy vz
fix                  4 all nvt temp 1.0 ${rtemp} 100.0
fix                  4 all nvt temp 1.0 298 100.0
run                  10000
PPPM initialization ...
  using 12-bit tables for long-range coulomb (src/kspace.cpp:342)
  G vector (1/distance) = 0.063991812
  grid = 3 3 3
  stencil order = 5
  estimated absolute RMS force accuracy = 0.036397473
  estimated relative force accuracy = 0.00010960991
  using double precision FFTW3
  3d grid and FFT values/proc = 512 27
Generated 28 of 28 mixed pair_coeff terms from geometric mixing rule
SHAKE stats (type/ave/delta/count) on step 0
Bond:    2   1.09334   0.00744745        59
Bond:    6   1.02221   0.00745952        10
Bond:   10   1.35928   0                  1
Bond:   12   0.978866  0                  1
Per MPI rank memory allocation (min/avg/max) = 17 | 17 | 17 Mbytes
------------ Step              0 ----- CPU =            0 (sec) -------------
TotEng   =       115.7253 KinEng   =         0.0000 Temp     =         0.0000 
PotEng   =       115.7253 E_bond   =         8.4525 E_angle  =        16.3750 
E_dihed  =        20.9361 E_impro  =         0.0849 E_vdwl   =        78.6273 
E_coul   =         2.6006 E_long   =       -11.3509 Press    =        33.2632
------------ Step            100 ----- CPU =   0.01064342 (sec) -------------
TotEng   =       115.7880 KinEng   =         2.6753 Temp     =         9.2211 
PotEng   =       113.1127 E_bond   =        10.8803 E_angle  =        19.7867 
E_dihed  =        20.7713 E_impro  =         0.1047 E_vdwl   =        70.2410 
E_coul   =         2.6795 E_long   =       -11.3507 Press    =        -2.0855
------------ Step            200 ----- CPU =   0.02122249 (sec) -------------
TotEng   =       113.9712 KinEng   =         3.4990 Temp     =        12.0599 
PotEng   =       110.4723 E_bond   =        11.2576 E_angle  =        22.3616 
E_dihed  =        18.4705 E_impro  =         0.1558 E_vdwl   =        66.9468 
E_coul   =         2.6309 E_long   =       -11.3509 Press    =       -10.8474
------------ Step            300 ----- CPU =    0.0320822 (sec) -------------
TotEng   =       111.7970 KinEng   =         3.0291 Temp     =        10.4404 
PotEng   =       108.7679 E_bond   =         9.4015 E_angle  =        22.3349 
E_dihed  =        17.6948 E_impro  =         0.3410 E_vdwl   =        68.1759 
E_coul   =         2.1717 E_long   =       -11.3519 Press    =         4.3391
------------ Step            400 ----- CPU =   0.04297177 (sec) -------------
TotEng   =       110.1036 KinEng   =         5.1833 Temp     =        17.8654 
PotEng   =       104.9203 E_bond   =         9.4314 E_angle  =        20.6035 
E_dihed  =        18.1700 E_impro  =         0.2654 E_vdwl   =        65.6731 
E_coul   =         2.1299 E_long   =       -11.3532 Press    =         0.8392
SHAKE stats (type/ave/delta/count) on step 500
Bond:    2   1.09      2.90939e-08       59
Bond:    6   1.02      5.88504e-09       10
Bond:   10   1.36      0                  1
Bond:   12   0.98      0                  1
------------ Step            500 ----- CPU =   0.05387641 (sec) -------------
TotEng   =       108.9026 KinEng   =         3.7349 Temp     =        12.8732 
PotEng   =       105.1677 E_bond   =        10.3117 E_angle  =        21.6137 
E_dihed  =        16.7097 E_impro  =         0.1890 E_vdwl   =        65.3601 
E_coul   =         2.3372 E_long   =       -11.3537 Press    =        -5.2574
------------ Step            600 ----- CPU =   0.06481593 (sec) -------------
TotEng   =       109.2729 KinEng   =         3.5029 Temp     =        12.0734 
PotEng   =       105.7701 E_bond   =         9.8780 E_angle  =        21.5667 
E_dihed  =        16.1541 E_impro  =         0.2158 E_vdwl   =        67.2425 
E_coul   =         2.0666 E_long   =       -11.3537 Press    =         1.7111
------------ Step            700 ----- CPU =   0.07572768 (sec) -------------
TotEng   =       111.0899 KinEng   =         4.0619 Temp     =        14.0003 
PotEng   =       107.0280 E_bond   =         9.1826 E_angle  =        20.9175 
E_dihed  =        17.7552 E_impro  =         0.2226 E_vdwl   =        68.1093 
E_coul   =         2.1949 E_long   =       -11.3541 Press    =         6.1664
------------ Step            800 ----- CPU =   0.08662787 (sec) -------------
TotEng   =       113.6709 KinEng   =         3.7475 Temp     =        12.9164 
PotEng   =       109.9234 E_bond   =         9.8791 E_angle  =        25.5282 
E_dihed  =        18.5819 E_impro  =         0.6254 E_vdwl   =        64.2335 
E_coul   =         2.4285 E_long   =       -11.3531 Press    =        -4.6525
------------ Step            900 ----- CPU =   0.09722963 (sec) -------------
TotEng   =       116.0775 KinEng   =         6.0813 Temp     =        20.9604 
PotEng   =       109.9962 E_bond   =        10.7848 E_angle  =        21.1465 
E_dihed  =        19.0938 E_impro  =         0.5703 E_vdwl   =        67.3002 
E_coul   =         2.4543 E_long   =       -11.3537 Press    =        -7.6766
SHAKE stats (type/ave/delta/count) on step 1000
Bond:    2   1.09      9.88924e-08       59
Bond:    6   1.02      7.64338e-09       10
Bond:   10   1.36      0                  1
Bond:   12   0.98      0                  1
------------ Step           1000 ----- CPU =     0.108397 (sec) -------------
TotEng   =       119.1261 KinEng   =         8.3303 Temp     =        28.7120 
PotEng   =       110.7958 E_bond   =         9.1980 E_angle  =        25.6432 
E_dihed  =        18.0320 E_impro  =         0.1067 E_vdwl   =        67.1973 
E_coul   =         1.9706 E_long   =       -11.3520 Press    =         7.7579
------------ Step           1100 ----- CPU =    0.1193298 (sec) -------------
TotEng   =       122.1099 KinEng   =         9.7355 Temp     =        33.5555 
PotEng   =       112.3744 E_bond   =        10.9776 E_angle  =        23.2566 
E_dihed  =        19.5216 E_impro  =         0.2445 E_vdwl   =        67.5104 
E_coul   =         2.2172 E_long   =       -11.3535 Press    =        -6.2093
------------ Step           1200 ----- CPU =    0.1302434 (sec) -------------
TotEng   =       122.9600 KinEng   =        11.4580 Temp     =        39.4925 
PotEng   =       111.5020 E_bond   =        11.1326 E_angle  =        22.4820 
E_dihed  =        20.5037 E_impro  =         0.2922 E_vdwl   =        66.1716 
E_coul   =         2.2713 E_long   =       -11.3514 Press    =        -6.4533
------------ Step           1300 ----- CPU =    0.1411677 (sec) -------------
TotEng   =       123.3435 KinEng   =         9.2139 Temp     =        31.7575 
PotEng   =       114.1297 E_bond   =         9.9235 E_angle  =        19.2098 
E_dihed  =        24.1650 E_impro  =         0.7244 E_vdwl   =        69.0572 
E_coul   =         2.4004 E_long   =       -11.3507 Press    =         4.9001
------------ Step           1400 ----- CPU =    0.1523825 (sec) -------------
TotEng   =       126.6038 KinEng   =        10.1654 Temp     =        35.0372 
PotEng   =       116.4384 E_bond   =         9.2100 E_angle  =        23.3307 
E_dihed  =        28.5607 E_impro  =         0.5868 E_vdwl   =        64.0237 
E_coul   =         2.0766 E_long   =       -11.3501 Press    =         1.4675
SHAKE stats (type/ave/delta/count) on step 1500
Bond:    2   1.09      1.4968e-07        59
Bond:    6   1.02      1.35615e-08       10
Bond:   10   1.36      0                  1
Bond:   12   0.98      0                  1
------------ Step           1500 ----- CPU =    0.1633354 (sec) -------------
TotEng   =       130.6878 KinEng   =        16.4287 Temp     =        56.6248 
PotEng   =       114.2591 E_bond   =         7.9279 E_angle  =        21.3521 
E_dihed  =        25.7944 E_impro  =         0.6164 E_vdwl   =        68.2099 
E_coul   =         1.7117 E_long   =       -11.3533 Press    =        20.3348
------------ Step           1600 ----- CPU =    0.1745498 (sec) -------------
TotEng   =       129.5742 KinEng   =        12.9186 Temp     =        44.5266 
PotEng   =       116.6556 E_bond   =         8.6407 E_angle  =        22.9393 
E_dihed  =        24.6935 E_impro  =         0.3916 E_vdwl   =        69.3375 
E_coul   =         2.0066 E_long   =       -11.3537 Press    =        14.6747
------------ Step           1700 ----- CPU =    0.1854442 (sec) -------------
TotEng   =       129.5194 KinEng   =        14.2385 Temp     =        49.0757 
PotEng   =       115.2810 E_bond   =        11.7795 E_angle  =        25.9887 
E_dihed  =        19.5917 E_impro  =         0.2549 E_vdwl   =        66.4034 
E_coul   =         2.6164 E_long   =       -11.3537 Press    =        -7.6800
------------ Step           1800 ----- CPU =    0.1966526 (sec) -------------
TotEng   =       129.8876 KinEng   =        16.6631 Temp     =        57.4327 
PotEng   =       113.2246 E_bond   =        11.1218 E_angle  =        21.6786 
E_dihed  =        23.2057 E_impro  =         0.5404 E_vdwl   =        65.3666 
E_coul   =         2.6643 E_long   =       -11.3530 Press    =        -4.2508
------------ Step           1900 ----- CPU =     0.207617 (sec) -------------
TotEng   =       130.9437 KinEng   =        13.9671 Temp     =        48.1406 
PotEng   =       116.9766 E_bond   =         8.2903 E_angle  =        21.2165 
E_dihed  =        25.5226 E_impro  =         1.0254 E_vdwl   =        69.7987 
E_coul   =         2.4758 E_long   =       -11.3529 Press    =        17.1061
SHAKE stats (type/ave/delta/count) on step 2000
Bond:    2   1.09      6.27582e-08       59
Bond:    6   1.02      1.01991e-08       10
Bond:   10   1.36      0                  1
Bond:   12   0.98      0                  1
------------ Step           2000 ----- CPU =    0.2188209 (sec) -------------
TotEng   =       135.0807 KinEng   =        21.9670 Temp     =        75.7136 
PotEng   =       113.1138 E_bond   =        12.0710 E_angle  =        24.6941 
E_dihed  =        22.5485 E_impro  =         0.4738 E_vdwl   =        62.5316 
E_coul   =         2.1478 E_long   =       -11.3530 Press    =       -16.9082
------------ Step           2100 ----- CPU =    0.2301068 (sec) -------------
TotEng   =       133.8580 KinEng   =        17.0046 Temp     =        58.6098 
PotEng   =       116.8534 E_bond   =         9.9599 E_angle  =        24.4744 
E_dihed  =        24.2977 E_impro  =         0.4226 E_vdwl   =        67.0191 
E_coul   =         2.0333 E_long   =       -11.3535 Press    =         8.8540
------------ Step           2200 ----- CPU =    0.2410893 (sec) -------------
TotEng   =       132.8834 KinEng   =        12.0822 Temp     =        41.6437 
PotEng   =       120.8012 E_bond   =         8.0959 E_angle  =        17.8916 
E_dihed  =        26.1668 E_impro  =         0.3422 E_vdwl   =        77.7119 
E_coul   =         1.9462 E_long   =       -11.3535 Press    =        43.3180
------------ Step           2300 ----- CPU =    0.2520951 (sec) -------------
TotEng   =       138.3833 KinEng   =        19.0369 Temp     =        65.6144 
PotEng   =       119.3464 E_bond   =        13.7168 E_angle  =        23.3359 
E_dihed  =        27.3862 E_impro  =         0.2922 E_vdwl   =        63.4633 
E_coul   =         2.5048 E_long   =       -11.3527 Press    =       -25.4955
------------ Step           2400 ----- CPU =    0.2634134 (sec) -------------
TotEng   =       142.0642 KinEng   =        23.3444 Temp     =        80.4613 
PotEng   =       118.7198 E_bond   =         8.0320 E_angle  =        23.5861 
E_dihed  =        25.6059 E_impro  =         0.4070 E_vdwl   =        70.3071 
E_coul   =         2.1327 E_long   =       -11.3510 Press    =        26.1714
SHAKE stats (type/ave/delta/count) on step 2500
Bond:    2   1.09      1.65262e-07       59
Bond:    6   1.02      2.21418e-08       10
Bond:   10   1.36      0                  1
Bond:   12   0.98      0                  1
------------ Step           2500 ----- CPU =    0.2746964 (sec) -------------
TotEng   =       143.6174 KinEng   =        18.6385 Temp     =        64.2413 
PotEng   =       124.9789 E_bond   =        15.0437 E_angle  =        29.7035 
E_dihed  =        25.0656 E_impro  =         0.6636 E_vdwl   =        63.6730 
E_coul   =         2.1796 E_long   =       -11.3501 Press    =       -32.3095
------------ Step           2600 ----- CPU =     0.285707 (sec) -------------
TotEng   =       146.8951 KinEng   =        26.4238 Temp     =        91.0749 
PotEng   =       120.4713 E_bond   =         7.8605 E_angle  =        21.2692 
E_dihed  =        29.5879 E_impro  =         0.5825 E_vdwl   =        70.8274 
E_coul   =         1.6940 E_long   =       -11.3502 Press    =        29.9148
------------ Step           2700 ----- CPU =    0.2969949 (sec) -------------
TotEng   =       142.3999 KinEng   =        24.0089 Temp     =        82.7518 
PotEng   =       118.3910 E_bond   =        12.8765 E_angle  =        24.8292 
E_dihed  =        29.3367 E_impro  =         0.3041 E_vdwl   =        60.8963 
E_coul   =         1.4993 E_long   =       -11.3512 Press    =       -24.8507
------------ Step           2800 ----- CPU =    0.3083035 (sec) -------------
TotEng   =       142.0076 KinEng   =        17.8055 Temp     =        61.3703 
PotEng   =       124.2021 E_bond   =         8.5218 E_angle  =        23.1421 
E_dihed  =        26.3321 E_impro  =         0.3135 E_vdwl   =        75.3033 
E_coul   =         1.9416 E_long   =       -11.3523 Press    =        31.7633
------------ Step           2900 ----- CPU =    0.3199552 (sec) -------------
TotEng   =       147.2004 KinEng   =        23.4653 Temp     =        80.8781 
PotEng   =       123.7351 E_bond   =        12.0661 E_angle  =        27.4734 
E_dihed  =        24.0313 E_impro  =         0.4955 E_vdwl   =        69.2591 
E_coul   =         1.7627 E_long   =       -11.3530 Press    =        -3.7195
SHAKE stats (type/ave/delta/count) on step 3000
Bond:    2   1.09      1.57702e-07       59
Bond:    6   1.02      3.01546e-08       10
Bond:   10   1.36      0                  1
Bond:   12   0.98      0                  1
------------ Step           3000 ----- CPU =    0.3318503 (sec) -------------
TotEng   =       152.6765 KinEng   =        22.3279 Temp     =        76.9577 
PotEng   =       130.3486 E_bond   =         8.4323 E_angle  =        24.8193 
E_dihed  =        36.0879 E_impro  =         0.9740 E_vdwl   =        68.6921 
E_coul   =         2.6951 E_long   =       -11.3521 Press    =        30.2733
------------ Step           3100 ----- CPU =    0.3432478 (sec) -------------
TotEng   =       156.6750 KinEng   =        28.1639 Temp     =        97.0725 
PotEng   =       128.5111 E_bond   =        14.1642 E_angle  =        29.2521 
E_dihed  =        35.1871 E_impro  =         0.4065 E_vdwl   =        58.7360 
E_coul   =         2.1182 E_long   =       -11.3530 Press    =       -32.5336
------------ Step           3200 ----- CPU =    0.3549443 (sec) -------------
TotEng   =       158.4304 KinEng   =        32.4448 Temp     =       111.8275 
PotEng   =       125.9857 E_bond   =         9.1631 E_angle  =        31.6356 
E_dihed  =        20.8417 E_impro  =         0.7067 E_vdwl   =        72.9389 
E_coul   =         2.0527 E_long   =       -11.3530 Press    =        27.5317
------------ Step           3300 ----- CPU =    0.3663994 (sec) -------------
TotEng   =       153.4403 KinEng   =        25.2002 Temp     =        86.8576 
PotEng   =       128.2401 E_bond   =        16.6568 E_angle  =        30.3773 
E_dihed  =        22.2527 E_impro  =         0.6704 E_vdwl   =        67.3376 
E_coul   =         2.2983 E_long   =       -11.3530 Press    =       -32.1902
------------ Step           3400 ----- CPU =    0.3782396 (sec) -------------
TotEng   =       155.8224 KinEng   =        33.4100 Temp     =       115.1543 
PotEng   =       122.4124 E_bond   =         8.5398 E_angle  =        24.3739 
E_dihed  =        21.8560 E_impro  =         0.4454 E_vdwl   =        75.4362 
E_coul   =         3.1156 E_long   =       -11.3544 Press    =        39.9512
SHAKE stats (type/ave/delta/count) on step 3500
Bond:    2   1.09      9.73212e-08       59
Bond:    6   1.02      4.02332e-08       10
Bond:   10   1.36      0                  1
Bond:   12   0.98      0                  1
------------ Step           3500 ----- CPU =    0.3902214 (sec) -------------
TotEng   =       157.7551 KinEng   =        29.0654 Temp     =       100.1797 
PotEng   =       128.6897 E_bond   =        11.1532 E_angle  =        28.4440 
E_dihed  =        36.3033 E_impro  =         1.1478 E_vdwl   =        60.2892 
E_coul   =         2.7021 E_long   =       -11.3498 Press    =       -10.1976
------------ Step           3600 ----- CPU =    0.4022862 (sec) -------------
TotEng   =       162.1565 KinEng   =        34.9814 Temp     =       120.5705 
PotEng   =       127.1751 E_bond   =        10.4899 E_angle  =        26.9442 
E_dihed  =        27.8721 E_impro  =         0.7710 E_vdwl   =        70.8149 
E_coul   =         1.6324 E_long   =       -11.3494 Press    =        21.2939
------------ Step           3700 ----- CPU =    0.4144483 (sec) -------------
TotEng   =       160.9858 KinEng   =        36.7828 Temp     =       126.7795 
PotEng   =       124.2030 E_bond   =        10.3485 E_angle  =        30.9000 
E_dihed  =        24.9327 E_impro  =         0.2539 E_vdwl   =        67.4333 
E_coul   =         1.6860 E_long   =       -11.3515 Press    =        11.3587
------------ Step           3800 ----- CPU =     0.426694 (sec) -------------
TotEng   =       158.9909 KinEng   =        33.9467 Temp     =       117.0042 
PotEng   =       125.0442 E_bond   =        18.0222 E_angle  =        31.0853 
E_dihed  =        21.4954 E_impro  =         0.5617 E_vdwl   =        63.2354 
E_coul   =         1.9881 E_long   =       -11.3439 Press    =       -34.6734
------------ Step           3900 ----- CPU =    0.4386682 (sec) -------------
TotEng   =       162.0957 KinEng   =        31.6381 Temp     =       109.0471 
PotEng   =       130.4576 E_bond   =         6.6931 E_angle  =        27.1412 
E_dihed  =        29.6061 E_impro  =         0.4691 E_vdwl   =        75.0475 
E_coul   =         2.8425 E_long   =       -11.3419 Press    =        64.8476
SHAKE stats (type/ave/delta/count) on step 4000
Bond:    2   1.09      2.3223e-07        59
Bond:    6   1.02      1.07143e-07       10
Bond:   10   1.36      0                  1
Bond:   12   0.98      0                  1
------------ Step           4000 ----- CPU =    0.4509262 (sec) -------------
TotEng   =       168.3666 KinEng   =        29.9716 Temp     =       103.3033 
PotEng   =       138.3950 E_bond   =        15.4267 E_angle  =        41.2784 
E_dihed  =        32.6585 E_impro  =         1.0625 E_vdwl   =        55.9819 
E_coul   =         3.3295 E_long   =       -11.3426 Press    =       -28.9951
------------ Step           4100 ----- CPU =    0.4630273 (sec) -------------
TotEng   =       171.3651 KinEng   =        36.8633 Temp     =       127.0570 
PotEng   =       134.5018 E_bond   =        13.4824 E_angle  =        30.0898 
E_dihed  =        30.5426 E_impro  =         0.7445 E_vdwl   =        68.2655 
E_coul   =         2.7212 E_long   =       -11.3442 Press    =        16.6223
------------ Step           4200 ----- CPU =    0.4751082 (sec) -------------
TotEng   =       171.5402 KinEng   =        35.5935 Temp     =       122.6802 
PotEng   =       135.9468 E_bond   =        13.4513 E_angle  =        30.6516 
E_dihed  =        30.9894 E_impro  =         1.5576 E_vdwl   =        67.9229 
E_coul   =         2.7176 E_long   =       -11.3435 Press    =         8.9229
------------ Step           4300 ----- CPU =    0.4871535 (sec) -------------
TotEng   =       169.0629 KinEng   =        36.3377 Temp     =       125.2452 
PotEng   =       132.7252 E_bond   =        11.0918 E_angle  =        33.2158 
E_dihed  =        33.3616 E_impro  =         0.6247 E_vdwl   =        63.3360 
E_coul   =         2.4378 E_long   =       -11.3424 Press    =         5.7555
------------ Step           4400 ----- CPU =    0.4989105 (sec) -------------
TotEng   =       171.7487 KinEng   =        32.9878 Temp     =       113.6992 
PotEng   =       138.7609 E_bond   =        15.7598 E_angle  =        34.2065 
E_dihed  =        31.3685 E_impro  =         1.5514 E_vdwl   =        64.1657 
E_coul   =         3.0542 E_long   =       -11.3452 Press    =        -9.1088
SHAKE stats (type/ave/delta/count) on step 4500
Bond:    2   1.09      8.30455e-08       59
Bond:    6   1.02      2.95998e-08       10
Bond:   10   1.36      0                  1
Bond:   12   0.98      0                  1
------------ Step           4500 ----- CPU =    0.5109091 (sec) -------------
TotEng   =       179.3312 KinEng   =        45.7059 Temp     =       157.5346 
PotEng   =       133.6254 E_bond   =        10.8789 E_angle  =        31.1279 
E_dihed  =        31.9633 E_impro  =         1.5722 E_vdwl   =        66.6817 
E_coul   =         2.7492 E_long   =       -11.3478 Press    =         9.6098
------------ Step           4600 ----- CPU =    0.5231428 (sec) -------------
TotEng   =       177.2385 KinEng   =        37.4159 Temp     =       128.9615 
PotEng   =       139.8226 E_bond   =        17.5777 E_angle  =        32.0033 
E_dihed  =        23.4380 E_impro  =         1.3107 E_vdwl   =        73.8789 
E_coul   =         2.9627 E_long   =       -11.3487 Press    =        14.1504
------------ Step           4700 ----- CPU =    0.5350908 (sec) -------------
TotEng   =       176.0418 KinEng   =        32.7449 Temp     =       112.8621 
PotEng   =       143.2968 E_bond   =        15.5738 E_angle  =        37.3783 
E_dihed  =        35.3413 E_impro  =         0.8759 E_vdwl   =        62.6413 
E_coul   =         2.8373 E_long   =       -11.3510 Press    =       -12.6644
------------ Step           4800 ----- CPU =    0.5472533 (sec) -------------
TotEng   =       182.7890 KinEng   =        42.4444 Temp     =       146.2933 
PotEng   =       140.3446 E_bond   =        18.8274 E_angle  =        33.9694 
E_dihed  =        29.2163 E_impro  =         0.7106 E_vdwl   =        66.2081 
E_coul   =         2.7623 E_long   =       -11.3493 Press    =       -25.6279
------------ Step           4900 ----- CPU =    0.5591334 (sec) -------------
TotEng   =       189.2208 KinEng   =        41.2564 Temp     =       142.1986 
PotEng   =       147.9644 E_bond   =        15.9276 E_angle  =        46.2817 
E_dihed  =        20.4418 E_impro  =         0.6394 E_vdwl   =        73.4869 
E_coul   =         2.5406 E_long   =       -11.3536 Press    =        23.5537
SHAKE stats (type/ave/delta/count) on step 5000
Bond:    2   1.09      1.19817e-07       59
Bond:    6   1.02      5.84907e-08       10
Bond:   10   1.36      0                  1
Bond:   12   0.98      0                  1
------------ Step           5000 ----- CPU =    0.5715142 (sec) -------------
TotEng   =       193.3532 KinEng   =        43.5415 Temp     =       150.0749 
PotEng   =       149.8116 E_bond   =        25.1641 E_angle  =        47.7187 
E_dihed  =        22.3921 E_impro  =         0.6446 E_vdwl   =        63.0475 
E_coul   =         2.2006 E_long   =       -11.3559 Press    =       -64.9590
------------ Step           5100 ----- CPU =     0.583432 (sec) -------------
TotEng   =       191.2377 KinEng   =        50.4236 Temp     =       173.7953 
PotEng   =       140.8141 E_bond   =        11.2296 E_angle  =        32.3441 
E_dihed  =        30.3468 E_impro  =         1.3616 E_vdwl   =        74.7939 
E_coul   =         2.0936 E_long   =       -11.3554 Press    =        42.5280
------------ Step           5200 ----- CPU =    0.5952737 (sec) -------------
TotEng   =       182.8692 KinEng   =        38.9476 Temp     =       134.2410 
PotEng   =       143.9215 E_bond   =        22.2870 E_angle  =        32.6062 
E_dihed  =        27.7366 E_impro  =         0.6876 E_vdwl   =        70.5063 
E_coul   =         1.4527 E_long   =       -11.3548 Press    =       -28.1144
------------ Step           5300 ----- CPU =    0.6071223 (sec) -------------
TotEng   =       183.3864 KinEng   =        46.0285 Temp     =       158.6465 
PotEng   =       137.3579 E_bond   =        14.7396 E_angle  =        35.3379 
E_dihed  =        25.5588 E_impro  =         1.7109 E_vdwl   =        69.6669 
E_coul   =         1.6982 E_long   =       -11.3543 Press    =        17.9544
------------ Step           5400 ----- CPU =    0.6189469 (sec) -------------
TotEng   =       188.3267 KinEng   =        42.3257 Temp     =       145.8841 
PotEng   =       146.0010 E_bond   =        15.1839 E_angle  =        33.7290 
E_dihed  =        33.4993 E_impro  =         0.3210 E_vdwl   =        72.9376 
E_coul   =         1.6840 E_long   =       -11.3537 Press    =         4.7509
SHAKE stats (type/ave/delta/count) on step 5500
Bond:    2   1.09      2.01964e-07       59
Bond:    6   1.02      2.38884e-07       10
Bond:   10   1.36      0                  1
Bond:   12   0.98      0                  1
------------ Step           5500 ----- CPU =    0.6309751 (sec) -------------
TotEng   =       194.7911 KinEng   =        42.6686 Temp     =       147.0662 
PotEng   =       152.1224 E_bond   =        20.5744 E_angle  =        48.6468 
E_dihed  =        30.4934 E_impro  =         0.8002 E_vdwl   =        60.7894 
E_coul   =         2.1668 E_long   =       -11.3486 Press    =       -42.1855
------------ Step           5600 ----- CPU =    0.6426431 (sec) -------------
TotEng   =       196.2486 KinEng   =        46.3924 Temp     =       159.9008 
PotEng   =       149.8563 E_bond   =        14.3861 E_angle  =        34.7838 
E_dihed  =        30.4756 E_impro  =         1.5521 E_vdwl   =        77.8815 
E_coul   =         2.1235 E_long   =       -11.3463 Press    =        20.6872
------------ Step           5700 ----- CPU =    0.6541855 (sec) -------------
TotEng   =       195.6832 KinEng   =        51.3985 Temp     =       177.1555 
PotEng   =       144.2847 E_bond   =        16.2500 E_angle  =        31.6667 
E_dihed  =        31.2537 E_impro  =         1.1807 E_vdwl   =        72.2025 
E_coul   =         3.0758 E_long   =       -11.3448 Press    =        -3.5268
------------ Step           5800 ----- CPU =    0.6657225 (sec) -------------
TotEng   =       193.6700 KinEng   =        48.3747 Temp     =       166.7332 
PotEng   =       145.2954 E_bond   =        11.4556 E_angle  =        32.5894 
E_dihed  =        35.8793 E_impro  =         1.2220 E_vdwl   =        73.1495 
E_coul   =         2.3473 E_long   =       -11.3477 Press    =        30.2894
------------ Step           5900 ----- CPU =    0.6769617 (sec) -------------
TotEng   =       195.0425 KinEng   =        51.2462 Temp     =       176.6305 
PotEng   =       143.7963 E_bond   =        20.0125 E_angle  =        36.6456 
E_dihed  =        26.5242 E_impro  =         0.7658 E_vdwl   =        69.3391 
E_coul   =         1.8578 E_long   =       -11.3488 Press    =       -26.1116
SHAKE stats (type/ave/delta/count) on step 6000
Bond:    2   1.09      5.15579e-07       59
Bond:    6   1.02      2.37682e-07       10
Bond:   10   1.36      0                  1
Bond:   12   0.98      0                  1
------------ Step           6000 ----- CPU =    0.6889802 (sec) -------------
TotEng   =       204.2867 KinEng   =        56.7682 Temp     =       195.6634 
PotEng   =       147.5185 E_bond   =        20.1502 E_angle  =        37.2408 
E_dihed  =        31.9424 E_impro  =         0.6686 E_vdwl   =        66.8975 
E_coul   =         1.9701 E_long   =       -11.3511 Press    =        -3.2524
------------ Step           6100 ----- CPU =    0.7004438 (sec) -------------
TotEng   =       206.3197 KinEng   =        48.6573 Temp     =       167.7074 
PotEng   =       157.6624 E_bond   =        18.4636 E_angle  =        41.3527 
E_dihed  =        33.3695 E_impro  =         1.9871 E_vdwl   =        71.8762 
E_coul   =         1.9639 E_long   =       -11.3505 Press    =        -7.0291
------------ Step           6200 ----- CPU =    0.7118404 (sec) -------------
TotEng   =       203.9702 KinEng   =        61.9827 Temp     =       213.6362 
PotEng   =       141.9875 E_bond   =        17.9408 E_angle  =        33.8507 
E_dihed  =        28.5486 E_impro  =         0.6768 E_vdwl   =        70.4317 
E_coul   =         1.8868 E_long   =       -11.3479 Press    =       -10.3262
------------ Step           6300 ----- CPU =     0.723192 (sec) -------------
TotEng   =       194.0247 KinEng   =        52.3333 Temp     =       180.3773 
PotEng   =       141.6914 E_bond   =        10.5961 E_angle  =        32.1506 
E_dihed  =        26.7551 E_impro  =         1.5174 E_vdwl   =        80.0311 
E_coul   =         1.9860 E_long   =       -11.3449 Press    =        67.2721
------------ Step           6400 ----- CPU =    0.7345359 (sec) -------------
TotEng   =       191.9114 KinEng   =        54.0421 Temp     =       186.2671 
PotEng   =       137.8693 E_bond   =        16.6513 E_angle  =        34.8736 
E_dihed  =        27.5867 E_impro  =         0.9640 E_vdwl   =        67.0216 
E_coul   =         2.1159 E_long   =       -11.3439 Press    =       -17.3783
SHAKE stats (type/ave/delta/count) on step 6500
Bond:    2   1.09      1.03278e-06       59
Bond:    6   1.02      4.99322e-07       10
Bond:   10   1.36      0                  1
Bond:   12   0.98      0                  1
------------ Step           6500 ----- CPU =    0.7458708 (sec) -------------
TotEng   =       197.8432 KinEng   =        44.3916 Temp     =       153.0046 
PotEng   =       153.4516 E_bond   =        15.5275 E_angle  =        39.3813 
E_dihed  =        34.0590 E_impro  =         0.6586 E_vdwl   =        73.9203 
E_coul   =         1.2490 E_long   =       -11.3441 Press    =         9.1390
------------ Step           6600 ----- CPU =    0.7571995 (sec) -------------
TotEng   =       203.0759 KinEng   =        51.6560 Temp     =       178.0430 
PotEng   =       151.4198 E_bond   =        24.9186 E_angle  =        40.1635 
E_dihed  =        33.7344 E_impro  =         2.1290 E_vdwl   =        60.1861 
E_coul   =         1.6326 E_long   =       -11.3443 Press    =       -60.5913
------------ Step           6700 ----- CPU =     0.768528 (sec) -------------
TotEng   =       206.5950 KinEng   =        54.4806 Temp     =       187.7786 
PotEng   =       152.1143 E_bond   =         9.3169 E_angle  =        36.8035 
E_dihed  =        29.6013 E_impro  =         2.2673 E_vdwl   =        83.7037 
E_coul   =         1.7654 E_long   =       -11.3437 Press    =        61.4573
------------ Step           6800 ----- CPU =    0.7798521 (sec) -------------
TotEng   =       210.2192 KinEng   =        71.8050 Temp     =       247.4905 
PotEng   =       138.4143 E_bond   =        16.5132 E_angle  =        36.4051 
E_dihed  =        22.0102 E_impro  =         1.9286 E_vdwl   =        70.3790 
E_coul   =         2.5220 E_long   =       -11.3438 Press    =        -0.0794
------------ Step           6900 ----- CPU =    0.7911278 (sec) -------------
TotEng   =       214.2583 KinEng   =        54.7670 Temp     =       188.7657 
PotEng   =       159.4913 E_bond   =        17.7564 E_angle  =        47.8735 
E_dihed  =        26.4818 E_impro  =         2.1519 E_vdwl   =        74.9067 
E_coul   =         1.6663 E_long   =       -11.3455 Press    =       -10.7171
SHAKE stats (type/ave/delta/count) on step 7000
Bond:    2   1.09      5.03661e-07       59
Bond:    6   1.02      2.82835e-07       10
Bond:   10   1.36      0                  1
Bond:   12   0.98      0                  1
------------ Step           7000 ----- CPU =    0.8029429 (sec) -------------
TotEng   =       224.7775 KinEng   =        71.3183 Temp     =       245.8132 
PotEng   =       153.4592 E_bond   =        19.3155 E_angle  =        38.1314 
E_dihed  =        30.5674 E_impro  =         2.1889 E_vdwl   =        72.7642 
E_coul   =         1.8348 E_long   =       -11.3429 Press    =        -6.3414
------------ Step           7100 ----- CPU =    0.8142515 (sec) -------------
TotEng   =       224.8025 KinEng   =        59.7302 Temp     =       205.8722 
PotEng   =       165.0723 E_bond   =        21.0085 E_angle  =        48.5179 
E_dihed  =        34.8956 E_impro  =         2.0288 E_vdwl   =        67.9599 
E_coul   =         2.0076 E_long   =       -11.3460 Press    =       -29.5857
------------ Step           7200 ----- CPU =    0.8257895 (sec) -------------
TotEng   =       213.2232 KinEng   =        52.9327 Temp     =       182.4434 
PotEng   =       160.2905 E_bond   =        22.3730 E_angle  =        43.2484 
E_dihed  =        29.8352 E_impro  =         1.3716 E_vdwl   =        72.5861 
E_coul   =         2.2213 E_long   =       -11.3452 Press    =       -37.0912
------------ Step           7300 ----- CPU =    0.8373162 (sec) -------------
TotEng   =       210.5610 KinEng   =        51.3282 Temp     =       176.9132 
PotEng   =       159.2328 E_bond   =        19.1696 E_angle  =        49.1999 
E_dihed  =        28.9437 E_impro  =         2.2219 E_vdwl   =        69.1415 
E_coul   =         1.9053 E_long   =       -11.3492 Press    =         4.2437
------------ Step           7400 ----- CPU =    0.8488773 (sec) -------------
TotEng   =       216.4802 KinEng   =        40.0946 Temp     =       138.1942 
PotEng   =       176.3856 E_bond   =        23.9041 E_angle  =        47.6414 
E_dihed  =        36.1015 E_impro  =         3.4101 E_vdwl   =        75.0092 
E_coul   =         1.6627 E_long   =       -11.3434 Press    =       -18.0050
SHAKE stats (type/ave/delta/count) on step 7500
Bond:    2   1.09      3.74087e-07       59
Bond:    6   1.02      8.99536e-07       10
Bond:   10   1.36      0                  1
Bond:   12   0.98      0                  1
------------ Step           7500 ----- CPU =    0.8605115 (sec) -------------
TotEng   =       226.9818 KinEng   =        59.0341 Temp     =       203.4733 
PotEng   =       167.9476 E_bond   =        21.3600 E_angle  =        47.0285 
E_dihed  =        34.0995 E_impro  =         1.2982 E_vdwl   =        73.7378 
E_coul   =         1.7709 E_long   =       -11.3472 Press    =         1.9411
------------ Step           7600 ----- CPU =    0.8721904 (sec) -------------
TotEng   =       234.6772 KinEng   =        69.7854 Temp     =       240.5297 
PotEng   =       164.8917 E_bond   =        15.9086 E_angle  =        42.0078 
E_dihed  =        29.9911 E_impro  =         2.6897 E_vdwl   =        84.4437 
E_coul   =         1.2013 E_long   =       -11.3504 Press    =        43.1930
------------ Step           7700 ----- CPU =    0.8839202 (sec) -------------
TotEng   =       242.6018 KinEng   =        76.3667 Temp     =       263.2137 
PotEng   =       166.2351 E_bond   =        19.8199 E_angle  =        55.5611 
E_dihed  =        28.3162 E_impro  =         1.9934 E_vdwl   =        69.8556 
E_coul   =         2.0351 E_long   =       -11.3463 Press    =        15.0858
------------ Step           7800 ----- CPU =    0.8953361 (sec) -------------
TotEng   =       229.9637 KinEng   =        69.7388 Temp     =       240.3692 
PotEng   =       160.2248 E_bond   =        21.6004 E_angle  =        49.9175 
E_dihed  =        26.2773 E_impro  =         2.5176 E_vdwl   =        68.8527 
E_coul   =         2.4055 E_long   =       -11.3461 Press    =       -21.0905
------------ Step           7900 ----- CPU =    0.9070373 (sec) -------------
TotEng   =       225.7562 KinEng   =        64.1206 Temp     =       221.0046 
PotEng   =       161.6357 E_bond   =        17.9453 E_angle  =        43.5247 
E_dihed  =        34.6840 E_impro  =         2.2938 E_vdwl   =        72.2239 
E_coul   =         2.3089 E_long   =       -11.3448 Press    =         9.5982
SHAKE stats (type/ave/delta/count) on step 8000
Bond:    2   1.09      1.03402e-07       59
Bond:    6   1.02      5.06665e-08       10
Bond:   10   1.36      0                  1
Bond:   12   0.98      0                  1
------------ Step           8000 ----- CPU =    0.9193871 (sec) -------------
TotEng   =       227.5243 KinEng   =        66.9025 Temp     =       230.5933 
PotEng   =       160.6218 E_bond   =        16.7799 E_angle  =        43.2785 
E_dihed  =        30.9511 E_impro  =         1.5818 E_vdwl   =        78.0138 
E_coul   =         1.3644 E_long   =       -11.3478 Press    =        35.9228
------------ Step           8100 ----- CPU =    0.9308224 (sec) -------------
TotEng   =       233.9819 KinEng   =        69.6656 Temp     =       240.1167 
PotEng   =       164.3163 E_bond   =        21.9693 E_angle  =        44.2417 
E_dihed  =        33.7188 E_impro  =         1.7574 E_vdwl   =        71.3211 
E_coul   =         2.6583 E_long   =       -11.3503 Press    =       -28.9960
------------ Step           8200 ----- CPU =    0.9425302 (sec) -------------
TotEng   =       244.1752 KinEng   =        77.5462 Temp     =       267.2788 
PotEng   =       166.6290 E_bond   =        21.1244 E_angle  =        48.8123 
E_dihed  =        37.2467 E_impro  =         1.9574 E_vdwl   =        66.1461 
E_coul   =         2.6912 E_long   =       -11.3491 Press    =       -15.0037
------------ Step           8300 ----- CPU =    0.9539905 (sec) -------------
TotEng   =       249.9154 KinEng   =        76.8660 Temp     =       264.9344 
PotEng   =       173.0494 E_bond   =        24.8099 E_angle  =        50.6046 
E_dihed  =        27.4316 E_impro  =         1.9348 E_vdwl   =        78.0231 
E_coul   =         1.5914 E_long   =       -11.3460 Press    =        -2.9386
------------ Step           8400 ----- CPU =    0.9657485 (sec) -------------
TotEng   =       237.5108 KinEng   =        70.2096 Temp     =       241.9919 
PotEng   =       167.3012 E_bond   =        16.6555 E_angle  =        52.7133 
E_dihed  =        34.0657 E_impro  =         1.6229 E_vdwl   =        72.0378 
E_coul   =         1.5495 E_long   =       -11.3434 Press    =        20.1277
SHAKE stats (type/ave/delta/count) on step 8500
Bond:    2   1.09      2.66648e-07       59
Bond:    6   1.02      2.61454e-07       10
Bond:   10   1.36      0                  1
Bond:   12   0.98      0                  1
------------ Step           8500 ----- CPU =    0.9770466 (sec) -------------
TotEng   =       230.0709 KinEng   =        65.4565 Temp     =       225.6092 
PotEng   =       164.6144 E_bond   =        17.6910 E_angle  =        51.4331 
E_dihed  =        30.4654 E_impro  =         0.8323 E_vdwl   =        73.6500 
E_coul   =         1.8867 E_long   =       -11.3440 Press    =        21.4613
------------ Step           8600 ----- CPU =    0.9886798 (sec) -------------
TotEng   =       238.9849 KinEng   =        79.7107 Temp     =       274.7394 
PotEng   =       159.2741 E_bond   =        19.2144 E_angle  =        42.9654 
E_dihed  =        30.9239 E_impro  =         1.4074 E_vdwl   =        74.5338 
E_coul   =         1.5738 E_long   =       -11.3446 Press    =         8.0636
------------ Step           8700 ----- CPU =     1.000136 (sec) -------------
TotEng   =       247.1447 KinEng   =        77.1364 Temp     =       265.8663 
PotEng   =       170.0084 E_bond   =        19.9183 E_angle  =        48.9288 
E_dihed  =        34.7176 E_impro  =         2.7829 E_vdwl   =        73.3226 
E_coul   =         1.6856 E_long   =       -11.3474 Press    =        -4.5376
------------ Step           8800 ----- CPU =     1.011981 (sec) -------------
TotEng   =       252.0160 KinEng   =        74.5477 Temp     =       256.9438 
PotEng   =       177.4684 E_bond   =        19.7873 E_angle  =        64.6270 
E_dihed  =        31.5349 E_impro  =         2.4806 E_vdwl   =        69.3048 
E_coul   =         1.0809 E_long   =       -11.3471 Press    =        -9.1949
------------ Step           8900 ----- CPU =     1.023938 (sec) -------------
TotEng   =       253.2990 KinEng   =        83.5403 Temp     =       287.9388 
PotEng   =       169.7587 E_bond   =        24.3379 E_angle  =        55.8717 
E_dihed  =        31.1151 E_impro  =         1.6469 E_vdwl   =        66.7498 
E_coul   =         1.3842 E_long   =       -11.3469 Press    =       -31.9606
SHAKE stats (type/ave/delta/count) on step 9000
Bond:    2   1.09      2.12505e-08       59
Bond:    6   1.02      2.5773e-09        10
Bond:   10   1.36      0                  1
Bond:   12   0.98      0                  1
------------ Step           9000 ----- CPU =     1.036168 (sec) -------------
TotEng   =       252.4178 KinEng   =        75.0451 Temp     =       258.6583 
PotEng   =       177.3727 E_bond   =        17.7784 E_angle  =        68.0235 
E_dihed  =        30.6138 E_impro  =         1.0640 E_vdwl   =        70.2196 
E_coul   =         1.0259 E_long   =       -11.3525 Press    =        28.8937
------------ Step           9100 ----- CPU =     1.048483 (sec) -------------
TotEng   =       249.9239 KinEng   =        76.6050 Temp     =       264.0349 
PotEng   =       173.3189 E_bond   =        21.7781 E_angle  =        50.0904 
E_dihed  =        37.6277 E_impro  =         1.2688 E_vdwl   =        72.0266 
E_coul   =         1.8813 E_long   =       -11.3539 Press    =        -6.4948
------------ Step           9200 ----- CPU =     1.060784 (sec) -------------
TotEng   =       234.9137 KinEng   =        69.7529 Temp     =       240.4177 
PotEng   =       165.1608 E_bond   =        15.6700 E_angle  =        51.6768 
E_dihed  =        33.2133 E_impro  =         1.1923 E_vdwl   =        73.0881 
E_coul   =         1.6723 E_long   =       -11.3521 Press    =        58.3923
------------ Step           9300 ----- CPU =      1.07308 (sec) -------------
TotEng   =       238.6200 KinEng   =        72.2383 Temp     =       248.9841 
PotEng   =       166.3817 E_bond   =        21.1698 E_angle  =        48.0406 
E_dihed  =        34.1892 E_impro  =         2.8557 E_vdwl   =        70.0786 
E_coul   =         1.4016 E_long   =       -11.3537 Press    =         4.9539
------------ Step           9400 ----- CPU =     1.085396 (sec) -------------
TotEng   =       253.5338 KinEng   =        80.1706 Temp     =       276.3245 
PotEng   =       173.3632 E_bond   =        18.4792 E_angle  =        62.2223 
E_dihed  =        39.0168 E_impro  =         1.2399 E_vdwl   =        61.6895 
E_coul   =         2.0659 E_long   =       -11.3503 Press    =        -2.1292
SHAKE stats (type/ave/delta/count) on step 9500
Bond:    2   1.09      2.37443e-06       59
Bond:    6   1.02      5.38944e-07       10
Bond:   10   1.36      0                  1
Bond:   12   0.98      0                  1
------------ Step           9500 ----- CPU =     1.097397 (sec) -------------
TotEng   =       265.0816 KinEng   =        82.4378 Temp     =       284.1387 
PotEng   =       182.6438 E_bond   =        25.0067 E_angle  =        57.7256 
E_dihed  =        32.5730 E_impro  =         4.5228 E_vdwl   =        71.4110 
E_coul   =         2.7576 E_long   =       -11.3528 Press    =       -19.0861
------------ Step           9600 ----- CPU =     1.109957 (sec) -------------
TotEng   =       273.2654 KinEng   =        91.6133 Temp     =       315.7640 
PotEng   =       181.6521 E_bond   =        23.6714 E_angle  =        56.2495 
E_dihed  =        30.5741 E_impro  =         2.4003 E_vdwl   =        77.4706 
E_coul   =         2.6371 E_long   =       -11.3509 Press    =        26.4900
------------ Step           9700 ----- CPU =     1.122225 (sec) -------------
TotEng   =       270.1091 KinEng   =        84.3231 Temp     =       290.6368 
PotEng   =       185.7861 E_bond   =        25.0750 E_angle  =        65.6241 
E_dihed  =        42.1255 E_impro  =         2.9450 E_vdwl   =        59.1327 
E_coul   =         2.2353 E_long   =       -11.3516 Press    =       -34.0255
------------ Step           9800 ----- CPU =     1.134462 (sec) -------------
TotEng   =       256.5981 KinEng   =        79.0848 Temp     =       272.5818 
PotEng   =       177.5133 E_bond   =        23.4004 E_angle  =        62.7429 
E_dihed  =        27.5905 E_impro  =         2.6978 E_vdwl   =        71.5616 
E_coul   =         0.8716 E_long   =       -11.3515 Press    =        -1.7848
------------ Step           9900 ----- CPU =     1.146372 (sec) -------------
TotEng   =       248.9586 KinEng   =        73.0312 Temp     =       251.7170 
PotEng   =       175.9274 E_bond   =        17.7957 E_angle  =        57.4795 
E_dihed  =        30.0626 E_impro  =         1.8277 E_vdwl   =        78.7131 
E_coul   =         1.3979 E_long   =       -11.3492 Press    =        29.6208
SHAKE stats (type/ave/delta/count) on step 10000
Bond:    2   1.09      1.66067e-06       59
Bond:    6   1.02      1.73509e-06       10
Bond:   10   1.36      0                  1
Bond:   12   0.98      0                  1
------------ Step          10000 ----- CPU =     1.158472 (sec) -------------
TotEng   =       263.6380 KinEng   =        80.7340 Temp     =       278.2663 
PotEng   =       182.9040 E_bond   =        21.9897 E_angle  =        61.7663 
E_dihed  =        39.5687 E_impro  =         2.2809 E_vdwl   =        67.5051 
E_coul   =         1.1433 E_long   =       -11.3501 Press    =         6.8244
Loop time of 1.15848 on 1 procs for 10000 steps with 122 atoms

Performance: 745.802 ns/day, 0.032 hours/ns, 8631.970 timesteps/s, 1.053 Matom-step/s
99.8% CPU use with 1 MPI tasks x 1 OpenMP threads

MPI task timing breakdown:
Section |  min time  |  avg time  |  max time  |%varavg| %total
---------------------------------------------------------------
Pair    | 0.33716    | 0.33716    | 0.33716    |   0.0 | 29.10
Bond    | 0.29012    | 0.29012    | 0.29012    |   0.0 | 25.04
Kspace  | 0.40829    | 0.40829    | 0.40829    |   0.0 | 35.24
Neigh   | 0.054044   | 0.054044   | 0.054044   |   0.0 |  4.67
Comm    | 0.0090152  | 0.0090152  | 0.0090152  |   0.0 |  0.78
Output  | 0.0035143  | 0.0035143  | 0.0035143  |   0.0 |  0.30
Modify  | 0.052828   | 0.052828   | 0.052828   |   0.0 |  4.56
Other   |            | 0.003523   |            |       |  0.30

Nlocal:            122 ave         122 max         122 min
Histogram: 1 0 0 0 0 0 0 0 0 0
Nghost:            190 ave         190 max         190 min
Histogram: 1 0 0 0 0 0 0 0 0 0
Neighs:           3469 ave        3469 max        3469 min
Histogram: 1 0 0 0 0 0 0 0 0 0

Total # of neighbors = 3469
Ave neighs/atom = 28.434426
Ave special neighs/atom = 5.7540984
Neighbor list builds = 205
Dangerous builds = 0
unfix                4
undump               1

#print                .
#print                ================================================
#print                "NPT dynamics with an isotropic pressure of 1atm."
#print                ================================================
#print                .

#fix                  2 all nvt temp ${rtemp} ${rtemp} 100.0
#thermo               100
#restart              50000 ${sname}.npt.*.restart
#dump                 1 all custom 100 ${sname}.${rtemp}K.${press}bar.npt.lammpstrj id type xu yu zu vx vy vz
#run                  500000 # run for 15 ns
#undump               1

#fix                  1 all gcmc 1 0 1 0 1234567 298 1 5 full_energy
#dump                 2 all custom 1 ${sname}.simple_mc.lammpstrj id type xu yu zu vx vy vz
#run                  10000
#unfix                1
#undump               2
Total wall time: 0:00:01
