ITEM: TIMESTEP
0
ITEM: NUMBER OF ATOMS
122
ITEM: BOX BOUNDS pp pp pp
0.0000000000000000e+00 6.0000000000000000e+01
0.0000000000000000e+00 6.0000000000000000e+01
0.0000000000000000e+00 6.0000000000000000e+01
ITEM: ATOMS id type xu yu zu vx vy vz
76 1 52.3074 29.0066 3.36505 0 0 0
77 1 51.0754 29.8469 2.92945 0 0 0
78 1 53.2656 28.6993 2.18495 -0 0 0
99 6 51.9654 28.0684 3.80177 -0 -0 -0
100 6 52.8662 29.5541 4.12407 -0 -0 -0
101 6 50.5745 29.3288 2.11171 0 0 -0
103 6 52.726 28.1454 1.4168 -0 -0 0
104 6 53.5992 29.6422 1.75164 0 0 0
109 6 49.6888 29.1094 4.42564 0 0 0
74 1 57.8798 29.4982 3.10718 0 0 -0
79 1 56.8842 29.7683 1.94714 -0 0 -0
82 1 54.4981 27.8714 2.63268 -0 0 0
83 3 56.539 28.5253 1.21911 -0 -0 -0
85 3 55.4603 27.675 1.52398 0 0 0
94 6 55.9276 29.7198 5.25137 0 0 -0
95 6 57.4793 28.7298 3.76839 -0 0 -0
96 6 58.8006 29.0999 2.68115 -0 0 0
111 6 54.9876 28.3593 3.47558 -0 -0 0
112 6 54.1674 26.8939 2.98366 -0 0 -0
113 6 57.141 28.2563 0.440889 -0 -0 0
116 6 55.3188 26.864 0.921809 -0 0 -0
81 1 50.0293 30.0763 4.05512 -0 -0 0
84 1 50.5481 30.9304 5.24297 -0 -0 0
102 6 51.4108 30.8124 2.55088 0 -0 0
110 6 49.1695 30.5818 3.61536 -0 -0 -0
114 6 51.389 30.423 5.71588 0 0 -0
115 6 50.8938 31.8957 4.87316 0 -0 -0
120 6 48.6136 31.6885 5.90232 0 -0 0
71 1 57.082 31.4754 4.68135 0 -0 0
72 1 58.2495 30.7546 3.947 0 -0 0
73 1 56.3473 30.6022 5.73443 -0 -0 0
89 6 56.365 31.8501 3.95087 0 -0 -0
90 6 57.4992 32.3444 5.1902 -0 0 0
91 6 58.7332 31.4758 3.28826 0 -0 0
92 6 58.9881 30.4576 4.69155 0 -0 -0
98 6 54.4527 31.651 5.68783 -0 -0 -0
105 6 57.334 30.4704 1.24505 -0 0 -0
106 6 55.9746 30.2354 2.32477 0 0 -0
70 4 52.9472 29.3484 9.62149 0 0 -0
107 6 54.0867 29.607 7.06879 -0 -0 0
69 8 51.6322 31.0906 9.96496 -0 0 -0
86 1 53.3603 31.2786 8.24854 -0 -0 -0
87 1 49.4717 31.1659 6.32498 -0 0 0
88 3 52.6531 30.5194 9.29729 -0 -0 -0
117 6 52.6203 31.5927 7.51245 -0 -0 0
118 6 53.7736 32.1742 8.71254 -0 0 0
119 6 49.1399 30.2147 6.74132 -0 0 -0
121 6 49.8857 31.7714 7.13121 -0 0 -0
122 7 51.1844 30.5619 10.658 -0 0 -0
75 1 55.1916 31.3627 6.43549 -0 0 -0
80 1 54.4988 30.5055 7.52817 0 0 0
93 6 57.0682 30.2699 6.48141 -0 -0 0
97 6 55.5875 32.27 6.89178 -0 -0 0
108 6 55.2415 30.2017 8.26587 -0 -0 0
60 6 40.1965 23.926 38.3771 0 0 -0
49 6 34.6773 28.3627 41.7776 -0 0 -0
21 1 36.9061 26.8301 41.2401 0 -0 -0
22 1 38.4296 26.6121 41.1276 0 0 -0
23 1 38.7886 25.8671 39.8219 -0 -0 -0
24 1 40.3145 25.645 39.7019 -0 0 -0
25 1 40.6824 24.9015 38.4003 0 0 0
52 6 36.4002 25.8647 41.2268 -0 0 -0
53 6 36.5597 27.4133 40.3869 0 0 0
54 6 38.9321 27.5792 41.1439 0 0 0
56 6 38.2801 24.9031 39.8092 0 0 0
57 6 38.4394 26.4507 38.9701 0 0 -0
58 6 40.818 26.6116 39.7178 0 0 -0
59 6 40.6586 25.0635 40.5572 0 -0 0
61 6 40.3564 25.4789 37.5352 0 -0 -0
55 6 38.7725 26.0308 41.9834 -0 -0 0
26 5 42.4656 24.6591 38.2918 0 0 0
62 7 42.3526 24.0222 37.0955 -0 -0 -0
15 5 31.0266 29.7196 45.5138 0 0 0
16 1 32.7974 29.4626 45.3273 -0 0 -0
17 1 33.1184 28.723 44.025 -0 0 0
18 1 34.646 28.5196 43.9291 0 0 -0
19 1 35.0182 27.7799 42.6333 0 -0 0
43 6 33.1549 28.8693 46.1689 -0 0 0
44 6 32.6129 27.7573 44.0193 0 -0 0
45 6 32.7668 29.3109 43.1771 -0 0 -0
46 6 35.1452 29.4884 43.9465 -0 0 0
47 6 34.9911 27.9403 44.7855 0 0 0
48 6 34.518 26.8116 42.6173 0 -0 -0
20 1 36.544 27.5735 42.5419 -0 -0 0
50 6 37.0437 28.542 42.5601 -0 -0 -0
51 6 36.8844 26.9934 43.3997 -0 -0 0
13 3 29.6885 31.054 47.3982 -0 -0 -0
41 6 28.8743 30.8574 46.8161 -0 0 -0
14 3 30.9674 30.6222 47.0086 0 0 -0
27 3 32.0718 30.9455 47.8345 0 -0 0
42 6 33.2935 30.4331 45.3116 -0 -0 -0
63 6 33.027 30.6755 47.5996 0 0 -0
2 1 22.9986 32.3838 53.3207 0 0 0
32 6 22.7817 34.5301 53.6694 0 0 0
35 6 22.245 32.5511 52.5511 -0 -0 -0
3 1 24.319 31.9058 52.6962 0 -0 0
4 2 25.414 32.5507 53.4732 -0 -0 -0
5 3 26.7302 32.5259 52.8831 0 -0 -0
6 3 27.6854 33.5508 53.1094 -0 -0 -0
7 3 28.9168 33.5768 52.4326 -0 0 -0
8 3 29.2512 32.5687 51.5002 0 0 -0
12 3 29.5146 31.763 48.5954 0 0 -0
29 3 28.3721 31.4621 51.3984 -0 -0 0
30 3 27.1424 31.4446 52.0686 0 -0 -0
31 1 24.8572 33.8886 53.8067 0 0 -0
36 6 24.3806 30.8195 52.7621 -0 0 -0
37 6 24.3579 32.2005 51.6475 0 -0 -0
38 6 27.491 34.309 53.7634 -0 0 -0
39 6 29.5513 34.3569 52.6034 -0 0 -0
40 6 28.5747 32.0935 48.814 0 -0 0
65 6 28.6174 30.6465 50.837 0 0 0
66 6 26.5454 30.6276 51.9401 0 -0 -0
67 6 24.9998 34.586 52.9813 0 -0 0
9 3 30.431 32.655 50.7237 0 -0 0
10 4 31.3885 33.3313 51.1782 0 -0 -0
11 3 30.6045 32.0267 49.4666 0 0 -0
28 3 31.8945 31.6483 49.0339 0 0 -0
64 6 32.7168 31.8509 49.6024 -0 0 -0
1 1 23.354 33.6863 54.0549 0 -0 -0
34 6 22.6249 31.6425 54.027 -0 0 -0
33 6 23.1595 33.5832 55.1225 -0 -0 -0
68 6 25.3301 34.2928 54.7018 -0 -0 -0
ITEM: TIMESTEP
1000
ITEM: NUMBER OF ATOMS
122
ITEM: BOX BOUNDS pp pp pp
0.0000000000000000e+00 6.0000000000000000e+01
0.0000000000000000e+00 6.0000000000000000e+01
0.0000000000000000e+00 6.0000000000000000e+01
ITEM: ATOMS id type xu yu zu vx vy vz
76 1 52.2003 28.9659 3.42882 0.000349682 8.53273e-05 0.000224805
77 1 50.9261 29.8131 3.15912 0.000415454 0.000243235 0.00043805
78 1 53.1725 28.9604 2.21977 -0.00017753 -7.60891e-05 -0.000199852
99 6 51.9068 27.9399 3.65104 0.000446985 9.05835e-05 0.000377577
100 6 52.7241 29.3662 4.29681 0.000736993 0.000394043 -0.000151362
101 6 50.477 29.476 2.22494 0.000355388 0.000514485 0.000369055
103 6 52.655 28.5517 1.3519 -0.000573114 -6.55364e-05 3.10644e-05
104 6 53.4607 29.9864 1.99103 2.47819e-05 -9.89814e-05 -4.76475e-05
109 6 49.5765 28.6636 4.40774 0.000404377 -0.000222011 -0.000258745
74 1 57.9508 29.2882 3.10329 -0.000195423 -0.000377023 -0.000279205
79 1 57.0054 29.898 2.03371 -0.000563749 0.00067695 0.000690475
82 1 54.4489 28.1245 2.48834 -0.000204915 -0.000389252 -0.000842194
83 3 56.4871 28.8708 1.10172 -0.000572915 0.00159623 -0.00029472
85 3 55.3345 28.09 1.30082 -0.000183236 0.000858983 -0.000870429
94 6 56.003 29.7501 5.19812 -0.000147697 -8.56808e-05 -0.000114335
95 6 57.4188 28.5293 3.67705 -0.000228247 -0.000687856 -0.000720749
96 6 58.7687 28.7822 2.59023 -0.000533718 -0.00015588 -0.00103659
111 6 54.9688 28.5282 3.35713 -0.000294624 -0.00129198 -0.000369036
112 6 54.1688 27.0998 2.73257 -0.000102298 -0.000565845 -0.00146545
113 6 57.0196 28.7044 0.247815 -0.000912498 0.00287311 -0.00075518
116 6 55.0792 27.4431 0.554657 7.9022e-05 0.00116097 -0.00122196
81 1 49.8402 29.7116 4.2653 0.000300454 -0.000137281 0.000172222
84 1 50.2493 30.3305 5.62943 0.000484974 -0.00111726 0.000527255
102 6 51.2082 30.8579 3.02945 0.000406919 0.000282381 0.000734878
110 6 48.9496 30.2282 3.90762 0.000370935 0.000223942 0.00051847
114 6 51.1303 29.8204 6.01892 0.000527475 -0.00152123 -9.7949e-05
115 6 50.499 31.3823 5.48988 0.000338571 -0.000968307 0.0013881
120 6 48.233 30.7433 6.3502 0.000518471 -0.00237706 0.00135104
71 1 57.5931 31.2035 4.90523 0.00106433 -0.00124441 0.000845841
72 1 58.5768 30.3201 4.08484 0.000335667 -0.00148033 0.000434062
73 1 56.6008 30.4236 5.8123 4.49097e-05 -0.000601576 0.000263883
89 6 57.0349 31.8428 4.2213 0.00161999 -0.000652155 0.000945986
90 6 58.1894 31.8599 5.53897 0.00141951 -0.00173867 0.00102367
91 6 59.2249 30.983 3.51164 0.000997507 -0.00171834 0.00090721
92 6 59.2137 29.7781 4.78393 -0.000206837 -0.0024698 0.000161199
98 6 55.1407 32.0268 5.86755 0.000321962 -0.000396161 -0.000810337
105 6 57.5539 30.6431 1.45736 -0.00100226 0.00148284 0.00131493
106 6 56.1698 30.4121 2.50877 -0.000665149 -0.00021146 0.00147352
70 4 52.4499 29.675 9.07773 -0.000690844 0.00103002 -0.000417139
107 6 53.9642 29.9948 6.71201 -0.000327574 0.000447624 4.94079e-05
69 8 51.6605 31.6567 9.64412 -0.000386717 0.00103633 -0.000343756
86 1 53.6035 31.5715 8.15789 -0.000208234 0.00085311 -0.000395312
87 1 49.1282 30.2204 6.68682 0.000781271 -0.00233349 0.000719866
88 3 52.5592 30.915 8.96812 -0.000364453 0.00101102 -0.000228035
117 6 53.1017 32.2199 7.4397 -9.59931e-05 0.000631741 -0.000673609
118 6 54.1917 32.1974 8.82899 -0.000232731 0.00112503 -0.000627481
119 6 48.8815 29.1749 6.87163 0.00098648 -0.00251165 -1.40771e-05
121 6 49.4608 30.6689 7.62291 0.000706711 -0.00293834 0.00103616
122 7 50.9834 31.186 10.1737 -0.000537241 0.00107134 -0.000505104
75 1 55.6377 31.3691 6.58064 0.000107246 -1.72982e-05 -0.000311272
80 1 54.5548 30.6083 7.39238 -0.000256283 0.000586159 -0.000137401
93 6 57.1638 29.8231 6.52676 -0.000864188 -0.00110903 0.000553717
97 6 56.2229 31.9886 7.26021 0.000185082 6.70104e-05 -0.00045517
108 6 55.0464 29.9484 8.10713 -0.000481834 0.000778529 0.000195365
60 6 40.704 23.5779 38.6352 -0.00192274 0.00360745 -0.00317939
49 6 34.6649 27.9178 41.6356 -0.00483867 -0.00282927 -0.000312035
21 1 37.0316 26.3992 41.3108 -0.0015822 -0.00325717 -0.000663134
22 1 38.5719 26.327 41.1634 -0.00100149 -0.000496217 0.000161098
23 1 39.0063 25.4127 39.9955 0.00130043 -0.000694256 0.00118827
24 1 40.5431 25.4067 39.8068 0.00144488 0.000300716 0.00196418
25 1 40.9686 24.6311 38.5406 0.00116005 0.00312018 1.55194e-05
52 6 36.6494 25.4171 41.5892 0.00017083 -0.00291422 0.0029545
53 6 36.5873 26.6885 40.3584 -0.00257521 -0.00666594 -0.00123517
54 6 38.9614 27.3288 40.9819 -0.00330497 0.000325067 -0.00024815
56 6 38.6632 24.3951 40.1824 0.00161938 -0.000691 0.0017914
57 6 38.5382 25.7692 39.0779 0.000903485 -0.00124052 0.00117853
58 6 40.8978 26.4336 39.7192 0.000732443 0.000781829 0.00472093
59 6 41.0143 24.9546 40.6796 0.000765903 -0.00161782 0.0013371
61 6 40.4755 25.0411 37.6592 0.00255932 0.00723034 0.0011448
55 6 39.0083 25.9554 42.0905 -0.00115535 0.00147081 0.00102186
26 5 42.7511 24.7656 38.2995 0.0011923 -0.000105858 0.00301277
62 7 42.7023 24.0216 37.1621 0.000768311 0.00555287 -0.000670316
15 5 31.1988 29.6458 45.3966 -0.00255078 0.000885366 -0.0016444
16 1 32.9902 29.5998 45.1845 -0.00197722 0.00336091 -0.00178861
17 1 33.2971 28.7377 43.9451 -0.000487988 0.000408892 0.000703
18 1 34.813 28.6039 43.6942 -0.000696733 0.00133284 -0.0016649
19 1 35.1153 27.5832 42.5701 -0.00266182 -0.00091557 -0.000676054
43 6 33.4492 29.144 46.0618 -0.000753919 0.00600645 -0.00105421
44 6 32.8724 27.7451 44.0947 0.000801241 0.000375845 0.00414201
45 6 32.8297 29.1821 43.0664 -0.00248086 -0.00324511 -8.47519e-05
46 6 35.218 29.5786 43.422 -0.00217382 0.00115414 -0.00450347
47 6 35.2988 28.2725 44.6119 0.000944239 0.00368404 -0.00168459
48 6 34.6924 26.6125 42.8288 -0.00119284 -0.000696482 0.00254667
20 1 36.6418 27.4368 42.387 -0.00284032 -0.000205455 -0.00389365
50 6 37.054 28.4068 42.1091 -0.00500777 -0.000375022 -0.00770154
51 6 37.0881 27.1364 43.335 -0.00106889 0.00426356 -0.0033117
13 3 29.6327 31.1442 46.997 -0.00286367 -0.00115398 0.00234854
41 6 28.8888 30.9021 46.3424 -0.00390489 -0.00223348 0.00393102
14 3 30.9516 30.7076 46.7652 -0.00292714 -0.000503373 -0.000349767
27 3 31.9584 31.119 47.6645 -0.00153854 0.00149235 -0.00256039
42 6 33.373 30.6107 45.0445 -0.00372943 0.00366303 -0.00439827
63 6 32.9357 30.8611 47.5271 -0.00143122 0.00279755 -0.00424627
2 1 23.2099 33.2713 54.5164 0.0016368 0.00469174 -0.00298872
32 6 24.5068 33.0755 56.2414 -0.00585899 0.00125878 0.00232402
35 6 22.7861 34.1569 54.99 0.00745764 0.00882448 -0.00550678
3 1 24.2228 33.6459 53.4131 0.00223803 -0.00369501 -0.00518543
4 2 25.264 32.6056 53.5026 0.00149794 -0.00350746 0.000314315
5 3 26.4705 32.6649 52.768 0.00209354 -0.00307193 0.0012161
6 3 27.5132 33.5554 53.0886 0.00205942 -0.00332534 0.00167071
7 3 28.6724 33.6161 52.2873 0.00234894 -0.00266821 0.00197563
8 3 28.8435 32.7887 51.1396 0.00245316 -0.00150833 0.00131038
12 3 29.3167 31.9149 48.1328 -0.00054025 0.000496292 0.0017837
29 3 27.8146 31.8339 50.9043 0.002514 -0.00152587 0.000742327
30 3 26.6384 31.7964 51.6769 0.0021987 -0.00167464 3.6038e-05
31 1 25.085 31.7123 54.6596 -0.000558612 0.00126691 0.00414423
36 6 23.7542 33.6406 52.429 0.00223181 -0.009087 -0.00515341
37 6 24.6504 34.6299 53.6061 0.00308218 -0.00276311 -0.0118048
38 6 27.4238 34.1678 53.8994 0.00162475 -0.00359485 0.00182631
39 6 29.3896 34.2902 52.5547 0.0022105 -0.0026996 0.00242622
40 6 28.3579 32.2485 48.2325 -0.000212494 0.00111383 0.00287022
65 6 27.9023 31.1276 50.1736 0.00303036 -0.00170195 0.000974548
66 6 25.9067 31.1236 51.4483 0.00191872 -0.00123043 -0.000375368
67 6 26.0094 31.57 55.2193 -0.001393 0.00528905 0.00654464
9 3 30.0145 32.9105 50.3271 0.001779 0.000165357 0.000598351
10 4 30.926 33.6814 50.7256 0.00143625 0.00119679 -4.29418e-05
11 3 30.2978 32.2429 49.1033 0.00084644 0.00112343 0.000285684
28 3 31.6357 31.8753 48.8036 0.000570581 0.00208082 -0.00231356
64 6 32.3945 32.1241 49.4382 0.00178043 0.00262581 -0.0039741
1 1 24.0204 32.4241 55.5154 -0.00346778 0.00289444 -0.000745926
34 6 22.4016 32.6741 54.0944 -0.00266389 0.00915593 -0.0010706
33 6 23.3907 31.711 56.0474 -0.00693821 0.00357958 -0.00393629
68 6 24.7186 30.7464 54.312 0.00179837 -0.000819045 0.00745664
ITEM: TIMESTEP
2000
ITEM: NUMBER OF ATOMS
122
ITEM: BOX BOUNDS pp pp pp
0.0000000000000000e+00 6.0000000000000000e+01
0.0000000000000000e+00 6.0000000000000000e+01
0.0000000000000000e+00 6.0000000000000000e+01
ITEM: ATOMS id type xu yu zu vx vy vz
76 1 52.1582 28.8931 3.3978 0.000116953 0.000772292 0.000296934
77 1 50.8562 29.6814 3.08557 -0.000595219 -0.00122773 -0.00147041
78 1 53.1174 28.8012 2.17778 -0.000258611 -0.00168581 0.000392878
99 6 51.8948 27.8854 3.71892 0.00117971 0.00141974 0.00320061
100 6 52.6839 29.3826 4.21766 -1.04639e-05 0.00345531 -0.00122356
101 6 50.3554 29.1961 2.2479 -0.000372199 -0.00345669 -0.000312265
103 6 52.6166 28.2674 1.37008 9.96772e-06 -0.00400399 0.00175829
104 6 53.3471 29.8081 1.82908 -0.00106958 -0.00251381 -0.00253216
109 6 49.6119 28.751 4.6049 -0.000736354 0.00106204 -0.000425394
81 1 49.8452 29.7601 4.26507 -0.000561998 0.00062765 -0.00159554
74 1 57.986 29.3798 3.15202 -0.000819795 0.00121173 5.84369e-05
79 1 57.0059 29.8614 2.04752 -0.00106949 0.000782865 -0.000102287
82 1 54.4439 28.0754 2.52702 0.000275718 -0.000120674 0.00183634
83 3 56.5395 28.7518 1.18361 -0.00079721 1.9203e-06 0.000646496
85 3 55.3687 27.9932 1.37101 0.000251863 -0.0011592 0.00200686
94 6 56.0222 29.7745 5.21068 -0.00107426 0.00122365 -0.00155462
95 6 57.5017 28.6177 3.76268 -0.000266574 0.00107837 0.000330672
96 6 58.8411 28.9051 2.67082 -0.000858353 0.0011225 7.79476e-05
111 6 54.9191 28.5777 3.36962 -0.000132071 0.000981508 0.00140938
112 6 54.2229 27.0583 2.85074 0.000711171 6.04257e-05 0.00270259
113 6 57.1179 28.52 0.376112 -0.000708154 -0.000530397 0.000863103
116 6 55.1426 27.3079 0.650176 0.000812114 -0.00231361 0.00292864
92 6 59.198 30.0578 4.8052 -3.86979e-05 0.00209784 -0.00104783
84 1 50.321 30.6134 5.47414 0.000574117 0.0014589 -0.0025745
102 6 51.1117 30.6932 2.77064 -0.00154668 -0.00163222 -0.00354192
110 6 48.9235 30.196 3.87971 -0.00042787 0.000468329 -0.00209655
115 6 50.6331 31.5974 5.12435 0.00151999 0.000784376 -0.00362806
71 1 57.4708 31.355 4.84194 -0.000576594 0.00100838 -0.000164242
72 1 58.5275 30.5103 4.07459 -0.000659658 0.00161541 -0.000776693
73 1 56.5555 30.5305 5.78699 -0.000470266 0.000251384 -0.000838029
89 6 56.8595 31.9047 4.12621 -0.000532299 0.00164933 0.00029022
90 6 58.0053 32.0947 5.43798 -0.000465774 0.00057659 0.000272245
91 6 59.1276 31.1887 3.46815 -0.00161854 0.00192873 -0.00137498
98 6 54.8886 31.9108 5.76697 3.72154e-05 0.00120012 0.00149872
105 6 57.5112 30.5955 1.4199 -0.00100264 0.000300156 -0.000613057
106 6 56.1448 30.3629 2.48933 -0.00114346 0.000843773 -0.000315558
114 6 51.1781 30.1328 5.94576 -3.19373e-05 0.000696134 -0.00225039
70 4 52.5869 29.4667 9.13315 0.00129105 -0.00148932 0.00257698
107 6 54.0907 29.8069 6.86353 0.000908233 -0.00137814 -1.31083e-05
119 6 48.8877 29.8288 6.91756 0.00106291 0.0041814 -0.000510639
93 6 57.1742 30.0205 6.52532 -0.000371286 -0.000744341 -0.00160869
120 6 48.3663 31.3294 6.12523 0.000826491 0.00246683 -0.00317757
69 8 51.7286 31.3869 9.81664 0.000811995 -0.000762784 0.000433373
86 1 53.5149 31.452 8.1515 -9.79973e-05 -0.00174445 3.95413e-05
87 1 49.2204 30.7974 6.54423 0.00105497 0.00346523 -0.00237559
88 3 52.6019 30.7133 9.0432 0.000635926 -0.00158204 0.000909597
117 6 52.9054 31.9564 7.40161 -0.000632716 -0.00228764 0.000108736
121 6 49.6128 31.3756 7.38077 0.00110173 0.00499617 -0.00345575
122 7 51.1375 30.8673 10.4005 0.00127987 -6.13077e-05 0.00153133
118 6 54.0162 32.2119 8.75096 -0.00032105 -0.00122331 -0.000434524
75 1 55.506 31.4106 6.51305 -2.30131e-06 -0.000333103 0.000503428
80 1 54.5895 30.5793 7.44901 0.00039848 -0.0012094 0.000198562
97 6 56.0191 32.1747 7.09701 0.000530039 -0.00131594 0.0013216
108 6 55.2015 30.0902 8.20686 0.000802115 -0.000915572 6.22332e-05
60 6 40.4372 25.111 39.0614 0.00597373 -0.00327149 0.000302483
49 6 35.8971 29.4448 43.6618 0.000275115 0.00476516 0.00383843
21 1 37.6039 27.4474 42.4741 -0.000252188 0.00592682 0.00457382
22 1 38.3853 26.0957 42.4583 -0.000436404 0.0055574 -0.00101262
23 1 39.6294 26.1386 41.5218 -0.00117702 0.000509217 -0.00290928
24 1 40.3078 24.767 41.2116 -0.00411318 -0.00182897 -0.000652808
25 1 41.1016 24.8152 39.8733 0.00217085 -0.00558402 0.00257174
52 6 37.429 27.7622 41.4453 -0.000932636 0.00946061 0.005771
53 6 38.2174 28.2097 42.9543 0.000827371 0.0038798 0.00644407
54 6 38.7037 25.8397 43.4689 3.38972e-05 0.00394157 -0.00156989
56 6 39.3067 26.5777 40.5778 -0.000758778 0.000244307 -0.0031755
57 6 40.3725 26.8128 41.9477 0.0016531 -0.00115734 -0.00520923
58 6 40.9799 24.5013 42.0276 -0.00865016 -0.00508082 0.00202435
59 6 39.5501 23.9879 41.1276 -0.00655236 0.000906231 -0.00401692
61 6 41.9064 25.5469 39.9442 0.00411518 -0.00803346 0.00577814
50 6 36.392 27.1137 44.2455 0.00083067 0.00474041 0.0061268
26 5 41.8275 23.2304 39.3948 -0.000686803 -0.00648937 0.00210452
62 7 42.3161 23.7472 38.2356 -0.00414186 -0.0071748 0.0003424
15 5 30.6384 31.1841 44.0474 -0.003464 -0.00297989 0.000262024
16 1 31.7294 29.7535 44.3462 0.0031839 0.00318379 -0.000488038
17 1 33.1308 29.8648 43.6714 0.00200579 0.00788263 -0.00146653
18 1 33.9261 28.5183 43.6484 0.000498436 0.00737895 0.0061064
19 1 35.3801 28.6644 43.1035 -0.000109648 0.00381454 0.00552387
43 6 31.2132 28.8882 43.9304 0.00606308 0.000841835 0.000811432
44 6 33.0064 30.2055 42.6435 0.000668897 0.00421519 -0.00252042
45 6 33.7122 30.6161 44.2059 0.000138886 0.0104484 -0.00304378
46 6 33.9702 28.1172 44.6609 0.00079155 0.0128934 0.00827776
47 6 33.3889 27.8006 43.0284 0.000135966 0.00398025 0.0103556
48 6 35.3242 28.9769 42.0608 -0.000598961 0.00229861 0.00509562
55 6 37.7182 25.3095 42.1049 -0.00193348 0.00690795 -0.00119042
20 1 36.2268 27.3565 43.1958 4.95508e-05 0.00410112 0.00610179
51 6 35.657 26.5428 42.7471 -7.28167e-05 0.00420353 0.00607151
13 3 29.1374 31.6786 46.1988 -0.00380272 0.000702269 -0.000257132
41 6 28.4025 31.1881 45.6891 -0.00359695 -0.000884133 0.00097191
14 3 30.4185 31.831 45.6433 -0.00475402 0.000667523 -0.00140079
27 3 31.4404 32.4953 46.355 -0.00586179 0.00387163 -0.00376633
42 6 31.8524 29.5839 45.4159 0.00448787 0.00487718 -0.000369279
63 6 32.3732 32.5973 45.9553 -0.00662787 0.00588264 -0.00503977
34 6 24.3292 30.0516 55.3307 -0.00310836 0.00139567 0.0038797
3 1 25.0044 31.6722 54.0601 0.00205646 -0.00627543 -0.00562888
4 2 26.4177 31.3 53.7858 0.00331913 -0.00538838 -0.00132955
5 3 27.1441 31.8948 52.7065 0.00396531 -0.00560416 -0.00126931
6 3 27.6087 33.2303 52.705 0.00352272 -0.005802 0.000642437
7 3 28.3693 33.7238 51.6215 0.0044125 -0.000809383 0.00375373
8 3 28.663 32.9262 50.4774 0.00211572 0.00266598 0.00102426
12 3 28.8467 32.2223 47.4527 -0.00321302 0.00147443 9.19169e-05
29 3 28.1483 31.5985 50.4802 0.00264801 0.00225956 -0.00217666
30 3 27.4261 31.0919 51.582 0.00569884 -0.0031641 -0.002599
36 6 24.3412 31.2555 53.302 0.00497031 -0.0124239 -0.00479962
37 6 24.8863 32.7555 54.0859 -0.000403073 -0.00634486 -0.0139156
38 6 27.4137 33.836 53.5022 0.00209716 -0.0076882 0.00172665
39 6 28.7231 34.6779 51.6913 0.005413 -0.00137947 0.00648245
40 6 27.8869 32.16 47.7924 -0.00274591 -0.00020353 0.00110411
65 6 28.3444 30.9512 49.7167 0.00217528 0.00413304 -0.00388667
66 6 27.1058 30.1236 51.5658 0.0082123 -0.00396319 -0.00452857
9 3 29.5575 33.4154 49.4732 -0.000690007 0.00398961 -0.000260063
10 4 30.2468 34.4275 49.7439 0.00265079 0.00178104 -0.00284697
11 3 29.8529 32.8711 48.2023 -0.00394616 0.00357479 -0.0014394
28 3 31.1537 33.0146 47.6314 -0.00514716 0.00240557 -0.00323998
64 6 31.9013 33.485 48.1415 -0.004141 0.00128143 -0.00367817
2 1 24.6946 31.0722 55.4448 0.000556894 0.000744807 -0.00204275
35 6 23.9574 31.6628 55.9888 0.0026439 0.00517803 -0.0040267
1 1 26.0614 31.0614 56.1532 0.000408012 -0.00224519 -0.00209256
33 6 26.1466 30.2211 56.8423 -0.00137834 -0.00176119 -0.00128165
32 6 26.1793 31.9889 56.7136 0.00101922 -0.00192585 -0.00274955
31 1 27.1328 30.9945 55.0436 0.00281241 -0.00292386 0.000147491
67 6 27.9343 31.7048 55.2466 0.000770122 -0.000670751 0.000327434
68 6 27.5562 29.9926 54.9724 0.00535739 -0.00207092 0.00328141
ITEM: TIMESTEP
3000
ITEM: NUMBER OF ATOMS
122
ITEM: BOX BOUNDS pp pp pp
0.0000000000000000e+00 6.0000000000000000e+01
0.0000000000000000e+00 6.0000000000000000e+01
0.0000000000000000e+00 6.0000000000000000e+01
ITEM: ATOMS id type xu yu zu vx vy vz
76 1 52.3456 28.9928 3.4746 0.000612028 0.00148178 0.000683721
77 1 51.0096 29.6149 2.98116 0.000318475 0.000557293 0.000644726
78 1 53.3103 28.6741 2.30064 -0.000499752 0.000200476 2.33158e-05
99 6 52.1209 28.077 4.02138 0.00159892 0.00250741 0.00280697
100 6 52.8538 29.6768 4.15427 0.00106945 0.00293396 -0.00111983
101 6 50.4919 28.8684 2.37873 0.000899532 0.000355546 0.000395362
103 6 52.7694 28.126 1.52924 -0.00127293 -0.00117811 0.0015451
104 6 53.649 29.6139 1.86455 -0.000852189 -0.000504662 -0.00176972
109 6 49.8816 29.2379 4.79428 -0.000668269 -0.000885882 -0.000316791
81 1 50.0449 30.0701 4.10961 -0.000437849 -0.000339364 0.000402496
74 1 57.8445 29.6105 3.05388 0.0016484 -0.000180466 -0.000950696
79 1 56.8362 29.7444 1.88203 0.0012944 -0.000568906 -0.000705475
82 1 54.5279 27.8203 2.74447 0.000135094 0.000734555 -0.000483583
83 3 56.5323 28.4344 1.26201 3.34787e-05 -0.00015563 -0.000716633
85 3 55.4861 27.5741 1.64091 -0.0010599 0.0010328 -0.0014722
94 6 56.0434 29.7021 5.39465 0.00231274 -0.000773769 0.000776761
95 6 57.5068 28.8423 3.74948 0.0021065 -0.00023723 -0.000790975
96 6 58.7959 29.2709 2.64435 0.00172156 -4.24454e-05 -0.00089521
111 6 55.0357 28.3028 3.57961 0.000244108 0.00120239 -0.000820201
112 6 54.1701 26.8565 3.10657 0.000698046 0.000678392 -7.67384e-05
113 6 57.1409 28.1246 0.504336 -0.000819706 -0.000535167 -0.00124677
116 6 55.3705 26.7158 1.10205 -0.00248846 0.00165088 -0.00215022
84 1 50.5362 31.3097 4.90761 -0.00181923 -0.000672127 0.00164351
102 6 51.2209 30.466 2.33375 -0.00022605 0.000693565 0.000646154
110 6 49.0856 30.3132 3.6528 -0.000309434 -0.000487517 5.39419e-05
115 6 50.7162 32.1379 4.22218 -0.00192449 4.735e-05 0.0024852
114 6 51.4762 31.0745 5.4068 -0.00208928 -0.00059686 0.00218752
92 6 58.9001 30.743 4.55971 0.00147941 5.70829e-05 -0.0008329
71 1 56.8919 31.542 4.59904 0.00141947 -0.000777203 0.000415712
72 1 58.104 30.9285 3.83866 0.00111917 -0.000137477 -0.000485191
73 1 56.3482 30.6789 5.77001 0.00186579 -0.000647072 0.000810059
89 6 56.0856 31.7533 3.89661 0.000839737 -0.00116951 0.000963099
90 6 57.2126 32.5002 5.00782 0.000776225 -0.000492474 0.000252937
91 6 58.4785 31.6737 3.13685 0.000690463 0.000187729 -0.000368627
98 6 54.3412 31.4965 5.73446 0.00145208 -0.00266673 -0.000371083
105 6 57.2545 30.4034 1.1212 0.00138756 -0.000895376 -0.000937026
106 6 55.9114 30.207 2.22692 0.00159505 0.000155932 -0.000871583
70 4 53.1988 29.2356 9.77927 -0.00012091 0.00218405 0.00138914
119 6 49.3071 30.9493 6.6733 -0.00264012 -0.00286154 0.000491745
107 6 54.2725 29.5136 7.23812 -0.000865026 -0.000747047 0.000181799
120 6 48.5993 32.0974 5.51961 -0.00311323 -0.00326964 0.00070084
69 8 51.5539 30.7108 9.91566 -0.00201442 0.000365924 -0.00230344
86 1 53.3601 31.1474 8.33582 0.00059006 0.000486221 -0.000200327
87 1 49.5271 31.7664 5.98628 -0.00297728 -0.00216118 0.00121675
88 3 52.7211 30.3168 9.37186 -0.000595305 0.00136626 -0.000277969
117 6 52.5995 31.3752 7.58902 0.00102661 0.00125838 -0.000409355
121 6 49.9452 32.5956 6.55708 -0.00461188 -0.00185979 0.00197609
122 7 51.1475 30.1356 10.5971 -0.00229603 0.000492503 -0.00236452
93 6 57.145 30.5283 6.49831 0.00173638 -0.000319425 0.00101945
118 6 53.6714 32.0834 8.79963 0.00143588 0.000121563 -3.22323e-05
75 1 55.1314 31.3422 6.46924 0.0010371 -0.00161939 0.000295198
80 1 54.5752 30.4834 7.63287 0.000254982 -0.00115456 0.000324019
97 6 55.4298 32.3159 6.85774 -0.000219638 -0.000826374 -0.000727036
108 6 55.3643 30.3194 8.36672 -0.000122607 -0.00217381 0.000502306
26 5 40.1521 22.9141 44.2238 -0.000490224 -0.000413871 0.00202423
62 7 38.937 22.5504 44.7148 0.00194029 -0.0244366 -0.00973588
60 6 39.959 23.9364 42.0721 -0.00889864 -0.00275978 0.00358183
23 1 37.2657 25.1354 41.9851 0.000297706 0.000864459 0.00393906
24 1 37.9175 23.9823 42.8155 -0.00512373 -0.000860434 0.00689443
25 1 39.4504 24.0891 43.024 -0.00560843 -0.00148308 0.00513504
52 6 34.8704 26.5356 42.7797 -0.000134459 0.0064405 0.00225336
56 6 36.2967 24.7657 41.6499 0.000713182 0.00271573 0.000695382
57 6 37.8604 25.3072 41.0879 0.00263618 0.000426111 0.00540479
59 6 37.7242 23.0415 42.3002 -0.0067616 -0.00052474 0.00689567
61 6 39.6953 25.0896 43.3804 -0.00408985 -0.000894478 0.00243982
49 6 33.9463 29.2976 41.8404 -0.00290366 0.00169718 0.000461438
16 1 32.5747 32.4191 44.346 -0.000887528 -0.000669517 -0.00825549
17 1 32.6905 31.2183 43.3832 -0.00848554 -0.00662733 -0.00163303
18 1 34.0723 30.5917 43.5596 -0.00359441 0.00362644 -0.00327372
19 1 34.15 29.1986 42.9066 0.00136838 0.00334594 -0.000202388
43 6 32.426 32.0835 45.3723 0.00438463 0.00480897 -0.00570204
46 6 34.8226 31.2445 43.1134 -0.00807646 0.00570962 -0.00776113
47 6 34.2961 30.4938 44.6219 0.00144588 0.00647161 -0.00407257
48 6 33.3978 28.5442 43.3471 0.00511149 0.00112723 0.0028938
51 6 35.7333 28.4644 44.1793 0.0119239 0.015333 -0.00514792
42 6 33.4283 33.0938 44.2811 0.00109572 -0.00385572 -0.0153278
21 1 35.6709 27.1855 42.4264 0.00154995 0.00398532 0.0015558
22 1 37.0382 26.4976 42.729 6.21472e-05 0.000342581 0.00439222
53 6 35.5595 27.302 41.3484 0.00222833 -0.000204886 0.0010318
54 6 37.8455 27.1778 42.4573 0.00130755 0.000154037 0.00762116
58 6 37.4234 23.9256 43.7854 -0.00416822 0.00112876 0.00749737
50 6 36.3092 29.2397 42.7012 -2.63791e-05 0.00589235 -0.0153928
55 6 37.1018 26.3418 43.8059 -0.00422483 -0.000898354 0.00446522
20 1 35.5496 28.5737 43.1105 0.00383483 0.00819146 -0.00448715
13 3 29.1191 32.7822 45.4052 -0.00341148 0.0015624 0.00276525
41 6 28.6863 32.1462 44.7354 -0.0061298 0.00594921 0.000355484
12 3 28.6783 32.8199 46.7358 -0.00757131 0.0010849 0.00187806
40 6 27.9307 32.1837 47.0127 -0.0117418 0.00578654 0.00141661
15 5 31.133 33.2092 43.6389 -6.94251e-05 0.00625617 -0.00134894
44 6 31.9064 30.4982 43.6172 -0.00499841 -0.00637503 0.0108243
45 6 32.6038 31.495 42.3324 -0.0185302 -0.0150026 -0.00301054
14 3 30.2461 33.5476 45.0655 0.00150415 -0.00286877 0.00361892
27 3 30.7564 34.5272 45.924 0.00238196 -0.00356652 0.00381672
63 6 31.5318 35.1285 45.6453 0.00294279 -0.00414264 0.00413373
28 3 30.2195 34.6305 47.2122 -0.000358787 -0.00178256 0.00199532
4 2 28.8843 29.3641 52.4912 0.00357959 -0.00100963 -0.00362031
5 3 28.6196 30.4412 51.6486 0.00168774 -0.000428115 -0.000713363
6 3 27.931 31.6223 52.0017 0.00106137 -0.000621467 -0.0016318
7 3 27.9689 32.7411 51.1389 0.000613152 -0.0021442 -0.0037123
8 3 28.6266 32.6691 49.8824 0.00220146 -0.00454041 -0.00271267
29 3 29.2575 31.441 49.562 0.00197928 -0.00516548 -0.00136241
30 3 29.2409 30.3343 50.4093 0.00136143 -0.00376028 4.99548e-05
36 6 27.7001 27.6863 52.0593 0.00238147 0.00169207 -0.00555108
37 6 26.8584 28.9466 52.9866 0.00259378 0.00356219 -0.00893187
38 6 27.4469 31.6816 52.8976 0.00115769 0.00176101 -0.00173781
39 6 27.5156 33.6067 51.4314 0.00052356 -0.00143947 -0.00593498
65 6 29.7996 31.3404 48.7038 0.00508447 -0.00494479 0.000571685
66 6 29.7321 29.4811 50.1423 0.00314417 -0.00350079 0.00249791
9 3 28.7576 33.7839 49.0071 0.00469784 -0.00309197 0.000495934
11 3 29.2214 33.7344 47.6697 0.000102427 -0.00219631 0.000562961
10 4 28.4818 34.9391 49.4169 0.00330996 -0.00404505 0.00336021
64 6 30.6074 35.3296 47.8456 -0.00221907 -0.000491344 0.0017083
68 6 30.8147 29.7947 53.2705 0.00359732 -0.00512047 -0.00130276
35 6 27.6185 28.1094 54.9719 -0.00167746 0.00504339 -0.00622162
34 6 28.2446 26.693 54.1164 -0.000368295 0.00436678 -0.00251179
3 1 27.8088 28.4314 52.8475 0.0021075 0.00175801 -0.00557565
2 1 28.2708 27.7817 54.1624 0.000617813 0.00441172 -0.00411571
1 1 29.6966 28.3121 54.4238 0.000296368 0.00201356 0.00253764
33 6 30.445 27.5968 54.0829 0.000496847 0.000722686 0.00568354
32 6 29.8518 28.5109 55.4842 -0.00292431 0.00382598 0.00267094
31 1 29.7985 29.6085 53.6179 0.00275557 -0.00130999 -0.00172603
67 6 29.461 30.445 54.2298 0.0033429 0.000850151 -0.00435681
ITEM: TIMESTEP
4000
ITEM: NUMBER OF ATOMS
122
ITEM: BOX BOUNDS pp pp pp
0.0000000000000000e+00 6.0000000000000000e+01
0.0000000000000000e+00 6.0000000000000000e+01
0.0000000000000000e+00 6.0000000000000000e+01
ITEM: ATOMS id type xu yu zu vx vy vz
76 1 52.1313 29.0281 3.27283 0.000531172 0.000698021 2.19183e-05
77 1 51.139 30.2077 3.48015 -0.000124047 0.000150188 0.000387944
78 1 53.2195 29.3583 2.21763 0.00208318 0.00166249 0.00173447
99 6 51.58 28.1431 2.95515 0.000604245 0.000995363 -0.000933433
100 6 52.6302 28.8022 4.21523 -0.000233314 0.000268173 0.000323635
101 6 50.6878 30.451 2.51816 -0.0011786 -0.00044054 0.000733077
103 6 52.7384 29.5022 1.25019 0.00299414 0.00514386 0.00179876
104 6 53.7108 30.2921 2.49113 0.00393239 -6.02396e-05 0.00429471
109 6 49.4502 29.0356 4.13947 0.00198586 -0.00226302 0.00238228
74 1 57.8006 28.9968 3.18865 -0.000897445 -0.000720239 0.000400616
79 1 56.9842 29.8793 2.20444 -1.15561e-05 -0.0010497 -0.000425496
82 1 54.2877 28.2412 2.10305 -0.000214211 -0.000342052 -0.000950113
83 3 56.4477 29.1511 1.03357 -0.00018888 -0.000585274 -0.000547071