# rob
         122 atoms
         123 bonds
         228 angles
         329 dihedrals
          48 impropers

           8 atom types
          13 bond types
           5 angle types
          11 dihedral types
           1 improper types

		   0.000000  60.000000 xlo xhi
		   0.000000  60.000000 ylo yhi
		   0.000000  60.000000 zlo zhi

Masses

    1 1.2011E+01 # C_3    
    2 1.4007E+01 # N_3    
    3 1.2011E+01 # C_R    
    4 1.5999E+01 # O_2    
    5 3.2060E+01 # S_3    
    6 1.0080E+00 # H_     
    7 1.0080E+00 # H___A  
    8 1.5999E+01 # O_R    


Atoms

       1        1        1 -0.03580000   23.52343   33.65611   53.99145    0    0    0
       2        1        1 -0.03580000   23.15767   32.34818   53.26003    0    0    0
       3        1        1  0.01220000   24.48170   31.85062   52.64144    0    0    0
       4        1        2 -0.32990000   25.54171   32.46851   53.47921    0    0    0
       5        1        3  0.02970000   26.75328   32.51001   52.79901    0    0    0
       6        1        3 -0.04000000   27.64595   33.55293   53.03291    0    0    0
       7        1        3 -0.04920000   28.84173   33.59700   52.36376    0    0    0
       8        1        3  0.02240000   29.16474   32.59260   51.44522    0    0    0
       9        1        3  0.19310000   30.45013   32.63647   50.72402    0    0    0
      10        1        4 -0.28670000   31.38683   33.25918   51.18763    0    0    0
      11        1        3  0.02230000   30.60031   31.92567   49.44138    0    0    0
      12        1        3 -0.04990000   29.47189   31.62353   48.67105    0    0    0
      13        1        3 -0.04760000   29.61424   30.96493   47.48313    0    0    0
      14        1        3  0.00790000   30.88144   30.59334   47.03829    0    0    0
      15        1        5 -0.12520000   31.06089   29.74358   45.50519    0    0    0
      16        1        1 -0.00170000   32.85355   29.49372   45.38445    0    0    0
      17        1        1 -0.04370000   33.17912   28.75543   44.08449    0    0    0
      18        1        1 -0.05230000   34.69113   28.54470   43.98275    0    0    0
      19        1        1 -0.05300000   35.01671   27.80633   42.68284    0    0    0
