# rob
         122 atoms
         123 bonds
         228 angles
         329 dihedrals
          48 impropers

           8 atom types
          13 bond types
           5 angle types
          11 dihedral types
           1 improper types

		   0.000000  60.000000 xlo xhi
		   0.000000  60.000000 ylo yhi
		   0.000000  60.000000 zlo zhi

Masses

    1 1.2011E+01 # C_3    
    2 1.4007E+01 # N_3    
    3 1.2011E+01 # C_R    
    4 1.5999E+01 # O_2    
    5 3.2060E+01 # S_3    
    6 1.0080E+00 # H_     
    7 1.0080E+00 # H___A  
    8 1.5999E+01 # O_R    

Pair Coeffs

    1    0.09510    3.47299 # C_3 C_3 
    2    0.07740    3.26256 # N_3 N_3 
    3    0.09510    3.47299 # C_R C_R 
    4    0.09570    3.03315 # O_2 O_2 
    5    0.34400    3.59032 # S_3 S_3 
    6    0.01520    2.84642 # H_ H_ 
    7          0    2.84642 # H___A H___A 
    8    0.09570    3.03315 # O_R O_R 

Bond Coeffs

    1      350     1.53 # C_3 C_3 
    2      350     1.09 # C_3 H_ 
    3      350    1.462 # N_3 C_3 
    4      350    1.392 # N_3 C_R 
    5      525     1.39 # C_R C_R 
    6      350     1.02 # C_R H_ 
    7      700     1.25 # O_2 C_R 
    8      350     1.73 # S_3 C_R 
    9      350      1.8 # S_3 C_3 
