ITEM: TIMESTEP
0
ITEM: NUMBER OF ATOMS
1280
ITEM: BOX BOUNDS pp pp pp
0.0000000000000000e+00 4.5735666000000002e+01
0.0000000000000000e+00 3.2339998999999999e+01
0.0000000000000000e+00 3.9056530000000002e+01
ITEM: ATOMS id type xu yu zu vx vy vz
4 2 5.86435 1.81794 3.63712 0 -0 -0
16 2 5.94425 7.13247 3.68821 0 0 -0
74 2 8.17252 1.2571 0.570448 0 0 -0
76 2 13.2598 1.916 4.05217 0 0 0
86 2 8.09121 6.68494 0.44333 -0 -0 -0
87 1 11.7967 5.15886 1.12723 -0 0 0
88 2 13.4285 7.14542 4.12052 0 -0 -0
451 4 13.8832 2.03058 39.3138 0 0 0
474 5 11.2327 2.71559 39.4737 -0 -0 -0
483 5 13.6409 0.985402 39.5062 0 -0 -0
484 5 13.7411 2.59343 40.2363 0 -0 -0
855 5 13.746 7.74776 40.05 0 -0 0
845 5 11.3636 7.98884 39.3211 -0 -0 -0
146 2 16.9653 0.435207 1.69924 0 -0 -0
148 2 20.8742 1.94841 3.99556 0 0 0
158 2 16.5374 6.29037 2.17739 -0 0 0
159 1 19.6045 5.10939 0.946368 -0 0 -0
160 2 21.0201 7.14578 4.06975 0 -0 0
981 4 21.5317 1.97468 39.2451 0 -0 -0
1004 5 18.8933 2.66048 39.4448 0 0 0
1013 5 21.3211 0.923049 39.4395 0 -0 0
1014 5 21.3713 2.5368 40.1651 -0 -0 -0
1067 5 21.3773 7.81117 39.9572 0 0 0
1057 5 19.0423 7.86979 39.2392 -0 0 0
28 2 5.95603 12.5051 3.69878 0 0 -0
111 1 11.5797 15.9773 0.970619 -0 -0 0
98 2 8.12079 12.0865 0.434586 -0 -0 -0
99 1 12.1043 10.5659 0.770781 -0 -0 -0
100 2 13.4467 12.4965 4.09764 -0 -0 -0
898 5 11.3762 13.391 39.2938 0 -0 -0
908 5 13.7736 13.1598 40.0469 0 -0 -0
183 1 19.4864 15.8732 0.742974 0 -0 0
170 2 16.6056 11.6353 2.12849 -0 0 0
171 1 19.6537 10.4925 0.593567 0 0 -0
172 2 21.0214 12.508 4.04393 -0 -0 -0
1110 5 19.0144 13.2908 39.2004 0 -0 0
1120 5 21.3529 13.223 39.9679 0 -0 0
6 2 2.50273 1.78248 7.74275 -0 -0 -0
8 2 6.26478 1.7554 11.3127 0 0 -0
17 1 6.97059 4.6655 6.72274 -0 0 0
18 2 2.49206 7.15526 7.73255 0 0 -0
20 2 6.24032 7.11613 11.3237 -0 -0 0
78 2 10.1272 1.78556 7.73563 -0 0 0
80 2 13.8762 1.74841 11.3208 0 0 0
89 1 14.8722 4.404 6.82427 0 -0 -0
90 2 10.0953 7.13519 7.69981 -0 0 0
92 2 13.8715 7.12175 11.327 0 -0 -0
163 1 18.6248 4.6085 12.6717 -0 -0 0
164 2 21.4957 7.12386 11.3221 -0 0 -0
150 2 17.7137 1.7139 7.70608 -0 -0 0
152 2 21.4696 1.71656 11.3331 0 0 0
161 1 22.6416 4.41116 6.76676 -0 0 0
162 2 17.7391 7.13992 7.70487 -0 -0 -0
41 1 7.02789 15.6301 6.85415 -0 0 -0
29 1 7.16049 10.1997 6.73207 0 -0 0
32 2 6.22975 12.5015 11.3209 0 0 0
30 2 2.50474 12.5521 7.73218 0 -0 -0
113 1 15.051 15.5608 6.77657 -0 -0 0
104 2 13.8593 12.5069 11.3173 0 0 0
102 2 10.1318 12.554 7.70808 0 -0 0
101 1 14.9841 10.0592 6.9208 0 0 -0
176 2 21.4724 12.4991 11.3092 -0 -0 0
174 2 17.8003 12.5848 7.7189 0 0 0
173 1 22.6183 10.0826 6.85191 0 0 0
185 1 22.6901 15.5963 6.83733 -0 0 -0
24 2 4.98813 7.9516 19.2658 -0 0 -0
22 2 2.01084 7.23755 15.5999 0 0 -0
19 1 3.4223 4.71557 13.2494 0 -0 0
10 2 2.07113 1.77094 15.4936 0 -0 -0
12 2 5.2608 2.00677 19.1221 0 0 -0
82 2 9.71321 1.76728 15.4716 -0 0 0
84 2 13.8164 1.90814 18.4253 -0 -0 0
94 2 9.67405 7.2037 15.5781 0 0 0
91 1 10.9023 4.65312 13.0994 0 -0 0
96 2 13.3315 7.81845 18.5049 -0 0 0
168 2 20.8482 7.95547 18.7187 -0 -0 0
93 1 17.2121 5.50192 18.9467 -0 -0 0
166 2 17.3149 7.17236 15.4952 0 -0 -0
156 2 21.215 1.94179 18.6996 0 0 -0
154 2 17.3299 1.7816 15.4721 -0 0 -0
36 2 5.13237 13.0095 19.1913 -0 0 -0
34 2 1.94122 12.7039 15.6705 -0 0 -0
43 1 3.43095 15.5195 13.5534 -0 0 0
31 1 3.49981 10.1456 13.577 0 0 -0
115 1 11.1922 15.5372 13.2054 0 -0 -0
45 1 8.15782 15.5803 19.4102 -0 0 -0
103 1 11.3078 10.0906 13.4599 -0 -0 0
106 2 9.58813 12.6966 15.6604 0 0 -0
108 2 13.1021 12.9849 18.5897 -0 -0 0
180 2 20.837 13.2987 18.5232 -0 -0 -0
175 1 19.2054 10.1661 13.6037 0 -0 0
187 1 19.0951 15.581 13.3742 -0 0 -0
178 2 17.1776 12.7129 15.6826 -0 -0 -0
381 1 0.659269 4.8735 20.6919 -0 -0 -0
21 1 7.25257 4.9977 19.8188 0 -0 -0
433 3 10.8407 5.94582 21.1836 -0 0 -0
434 3 9.42076 4.69355 21.2666 0 -0 0
439 4 11.1769 5.09959 25.7221 -0 0 -0
444 4 10.3632 5.72216 24.5712 0 -0 -0
450 4 10.7215 5.01361 23.256 -0 0 -0
452 4 9.91515 5.62936 22.0977 -0 -0 0
461 5 12.2277 5.37521 25.6323 -0 0 -0
462 5 11.0905 4.01404 25.6752 -0 0 0
471 5 9.29631 5.60056 24.7585 0 -0 -0
472 5 10.5863 6.78779 24.5186 -0 -0 0
481 5 10.478 3.95622 23.3596 -0 0 -0
482 5 11.7993 5.1044 23.121 -0 -0 -0
95 1 11.6314 3.32206 20.7943 -0 0 -0
963 3 18.1495 5.99142 21.3149 -0 0 0
964 3 17.5685 4.19464 21.2359 -0 -0 -0
969 4 18.7396 5.05928 25.8034 0 0 -0
974 4 17.8177 5.52256 24.6467 0 -0 -0
980 4 18.2833 4.82347 23.3615 -0 0 -0
982 4 17.4541 5.20926 22.1325 -0 -0 -0
991 5 19.7729 5.37902 25.6692 -0 -0 0
992 5 18.7522 3.96999 25.8407 0 0 -0
1001 5 16.7929 5.21822 24.8595 0 -0 0
1002 5 17.7986 6.60749 24.5434 0 0 0
1011 5 18.0885 3.77323 23.5787 0 -0 0
1012 5 19.3496 4.96628 23.1863 -0 0 0
167 1 19.0577 2.09737 21.8725 0 -0 0
179 1 20.2941 7.6844 24.4693 0 0 0
393 1 0.39748 10.2811 21.4011 0 -0 -0
405 1 0.501977 15.4831 21.1125 -0 0 -0
804 3 11.9166 11.0245 21.4789 -0 0 -0
805 3 10.242 10.1527 21.2189 0 0 0
810 4 11.0342 10.6063 25.8382 0 -0 0
815 4 10.2736 11.2483 24.6472 0 -0 -0
821 4 10.8159 10.5084 23.4137 0 -0 -0
823 4 10.7009 11.1436 22.011 0 -0 -0
832 5 12.0965 10.8458 25.7922 0 -0 0
833 5 10.9522 9.52059 25.7869 -0 -0 -0
842 5 9.20284 11.0707 24.7477 0 -0 -0
843 5 10.4333 12.3252 24.5939 -0 0 0
852 5 10.2932 9.55247 23.4454 -0 -0 -0
853 5 11.8733 10.3171 23.5968 -0 0 -0
863 4 11.1083 15.9006 25.7169 -0 0 0
874 4 10.8259 15.8309 23.2209 0 0 -0
906 5 11.9129 15.7498 23.2136 -0 -0 -0
886 5 11.0441 14.8126 25.7004 -0 0 -0
905 5 10.4146 14.8262 23.1237 0 -0 0
119 1 13.1842 13.1187 24.744 -0 0 -0
107 1 12.1108 8.21248 21.9694 -0 -0 0
858 3 10.1504 16.075 20.9221 0 0 0
33 1 8.20649 10.4054 19.6507 0 -0 -0
177 1 22.2695 10.8582 20.712 0 0 0
1016 3 20.0011 11.561 21.6728 -0 0 0
1017 3 18.3213 10.669 21.0127 -0 -0 -0
1022 4 18.7371 10.5377 25.8289 0 0 0
1027 4 18.0656 11.1296 24.5699 0 0 0
1033 4 18.7084 10.4626 23.3206 0 -0 -0
1035 4 18.7409 11.3614 22.0701 0 -0 0
1044 5 19.7983 10.7865 25.8202 0 0 0
1045 5 18.6268 9.45371 25.7983 0 -0 0
1054 5 16.9965 10.9196 24.599 -0 0 -0
1055 5 18.1929 12.2121 24.5584 -0 0 -0
1064 5 18.1645 9.5375 23.13 -0 0 0
1065 5 19.7429 10.1998 23.5417 -0 -0 -0
1075 4 18.6921 16.0276 25.7351 -0 0 -0
1086 4 18.6103 15.8065 23.2344 0 0 0
1118 5 19.6749 15.6007 23.3454 0 -0 -0
1098 5 18.4913 14.957 25.6949 -0 -0 -0
105 1 16.1355 10.6475 19.7295 -0 0 -0
1117 5 18.0806 14.8547 23.1929 0 0 0
191 1 20.8813 13.7099 26.0304 0 0 0
189 1 22.057 15.9844 21.2532 -0 0 0
117 1 15.4368 15.7026 19.5412 -0 -0 0
23 1 4.8629 5.44237 26.6066 -0 -0 -0
435 4 11.4138 4.94796 28.2472 0 -0 0
436 4 10.76 5.40474 29.5556 0 -0 0
437 4 10.63 5.57091 27.0733 0 -0 -0
438 4 11.4318 4.80541 30.8112 0 -0 0
443 4 10.8519 5.44719 32.0891 -0 -0 0
447 4 9.3497 5.15165 32.309 -0 -0 0
453 5 11.372 3.85995 28.1964 -0 -0 -0
454 5 12.4543 5.27105 28.2151 -0 0 0
455 5 10.792 6.49335 29.6002 -0 0 0
456 5 9.71676 5.09136 29.5173 0 -0 0
457 5 10.696 6.65758 27.1271 0 0 -0
458 5 9.58032 5.28602 27.145 0 0 0
459 5 12.5032 5.00137 30.7685 -0 -0 -0
460 5 11.283 3.72586 30.8345 -0 0 -0
469 5 10.9614 6.52761 31.9952 0 0 0
477 5 8.78546 5.52467 31.4542 -0 0 0
157 1 13.9588 7.26869 -6.57728 0 0 -0
83 1 11.9734 1.52547 26.5064 -0 -0 -0
73 1 7.96312 0.912224 -7.53103 -0 -0 0
145 1 14.8261 1.39825 -7.0495 -0 0 -0
965 4 19.0219 5.0263 28.3202 -0 -0 0
966 4 18.3231 5.45468 29.6131 -0 0 0
967 4 18.2148 5.59472 27.1355 -0 0 -0
968 4 18.96 4.83763 30.8757 -0 0 0
973 4 18.3824 5.51922 32.1322 0 -0 0
977 4 16.8764 5.27002 32.3637 -0 0 -0
983 5 19.0448 3.93726 28.2807 0 0 0
984 5 20.0454 5.40081 28.2992 0 0 -0
985 5 18.3476 6.54315 29.6655 0 -0 0
986 5 17.2813 5.13905 29.5568 0 0 -0
987 5 18.2658 6.68346 27.1467 0 -0 0
988 5 17.1686 5.30461 27.2325 0 -0 0
989 5 20.0388 4.99085 30.8479 -0 -0 0
990 5 18.7665 3.76532 30.904 -0 -0 -0
999 5 18.5073 6.59453 32.0048 -0 0 -0
1007 5 16.2991 5.63034 31.5122 0 -0 -0
155 1 18.795 1.3133 27.297 0 -0 0
217 1 22.3086 1.4694 -6.97415 0 -0 -0
35 1 6.17155 10.5929 26.6416 -0 -0 -0
47 1 5.20231 15.8163 26.1839 0 0 0
806 4 11.3428 10.3438 28.2875 0 -0 0
807 4 10.7313 10.745 29.6238 -0 -0 -0
808 4 10.5124 11.0476 27.1892 -0 0 0
809 4 11.3978 10.0813 30.8463 0 0 -0
814 4 10.93 10.8025 32.1301 -0 -0 -0
818 4 9.41057 10.6241 32.3637 0 -0 -0
824 5 11.2916 9.26066 28.1766 0 0 0
825 5 12.3877 10.6503 28.2387 -0 -0 -0
826 5 10.7686 11.831 29.7096 -0 0 0
827 5 9.68753 10.4329 29.5887 0 0 -0
828 5 10.5877 12.1312 27.2808 0 0 -0
829 5 9.46524 10.7538 27.2618 0 0 0
830 5 12.4839 10.1352 30.7718 0 -0 -0
831 5 11.1266 9.02594 30.8749 0 0 0
840 5 11.1357 11.8687 32.0353 0 -0 -0
848 5 8.87728 11.0569 31.5172 0 0 -0
859 4 11.3129 15.7214 28.2088 0 -0 0
862 4 11.2827 15.4547 30.7554 0 0 -0
871 4 9.35519 16.0456 32.3224 0 -0 0
877 5 11.2685 14.6365 28.1131 -0 -0 -0
878 5 12.3552 16.0401 28.203 -0 0 0
880 5 9.59893 15.8394 29.4635 0 0 0
882 5 9.49052 16.1354 27.1094 -0 0 -0
883 5 12.3676 15.4481 30.6502 -0 0 -0
884 5 10.9682 14.4119 30.7988 0 0 -0
169 1 14.3359 12.1784 -8.70189 0 0 -0
860 4 10.6472 16.1324 29.5224 0 -0 -0
1018 4 18.8985 10.3248 28.322 -0 -0 0
1019 4 18.2673 10.7399 29.6553 -0 -0 -0
1020 4 18.1342 11.0031 27.1582 0 0 -0
1021 4 18.9004 10.0238 30.8718 -0 0 -0
1026 4 18.5446 10.7707 32.1751 0 -0 -0
1030 4 17.037 10.716 32.4853 0 -0 -0
1036 5 18.8402 9.24051 28.2267 -0 -0 0
1037 5 19.9486 10.6163 28.3041 0 -0 -0
1038 5 18.3526 11.8222 29.7526 -0 -0 -0
1039 5 17.2092 10.4802 29.6226 0 0 0
1040 5 18.1948 12.0881 27.2429 0 0 0
1041 5 17.0848 10.7103 27.1909 0 -0 0
1042 5 19.9844 9.9701 30.7712 -0 -0 -0
1043 5 18.5373 8.99681 30.9115 0 0 0
1052 5 18.8195 11.8209 32.0765 -0 -0 0
1060 5 16.4852 11.2916 31.7422 0 0 -0
1071 4 18.8552 15.7955 28.229 0 0 -0
1074 4 18.8529 15.464 30.783 0 0 0
1083 4 16.9061 16.0351 32.3647 -0 -0 -0
1089 5 18.7948 14.7142 28.105 -0 0 0
1090 5 19.9021 16.0984 28.2482 -0 0 -0
1092 5 17.1545 15.8595 29.4977 0 0 0
1095 5 19.938 15.5092 30.6897 0 -0 -0
1096 5 18.5647 14.413 30.8045 -0 0 0
241 1 21.7436 12.0836 -8.26307 0 -0 -0
1072 4 18.2005 16.1593 29.5623 -0 0 0
1079 4 18.414 16.1589 32.0957 -0 0 -0
14 2 1.44696 7.31091 -0.224497 0 0 -0
85 1 6.7384 6.46527 -5.7957 0 0 0
2 2 1.46445 1.91804 -0.208037 0 0 0
15 1 4.23143 4.56316 -0.145332 0 0 0
440 4 10.5996 2.86163 36.0648 0 0 0
441 4 10.6517 3.43937 37.4944 -0 -0 0
442 4 9.73964 3.69095 35.0889 -0 -0 0
445 4 11.4761 2.51326 38.4307 -0 -0 0
446 4 9.76902 2.99859 33.7041 -0 -0 -0
448 4 13.015 2.62606 38.185 -0 0 0
449 4 8.92208 3.70586 32.6311 -0 -0 0
463 5 10.1922 1.85166 36.1111 -0 -0 0
464 5 11.6132 2.81396 35.6668 0 0 0
465 5 9.63556 3.53573 37.8769 -0 -0 0
466 5 11.0871 4.4373 37.4425 -0 -0 -0
467 5 8.71505 3.74973 35.4561 0 0 -0
468 5 10.1407 4.70215 35.0201 0 0 0
470 5 11.4321 5.14393 32.9607 0 0 0
473 5 11.1213 1.49221 38.2904 -0 -0 -0
475 5 10.7967 2.92044 33.3494 -0 0 -0
476 5 9.39487 1.98195 33.8248 0 -0 0
478 5 13.2781 2.1405 37.2452 0 0 0
479 5 13.3047 3.67024 38.0672 0 -0 0
480 5 7.87562 3.69052 32.9357 0 0 0
816 4 11.5856 7.83331 38.2653 -0 -0 0
819 4 13.1055 8.02118 37.9701 -0 0 -0
834 5 10.1129 7.20624 36.0425 -0 -0 -0
844 5 11.316 6.8022 38.0368 0 0 0
847 5 9.30404 7.41908 33.7628 0 -0 -0
849 5 13.3497 7.54406 37.0209 0 0 0
485 5 14.9343 2.09807 39.0332 -0 0 -0
856 5 15.0591 7.78339 38.8688 0 0 0
854 5 14.0553 6.34748 38.9866 -0 -0 -0
822 4 14.0418 7.43563 39.0484 -0 0 -0
970 4 18.2264 2.80816 36.0368 0 0 0
971 4 18.2678 3.35193 37.478 -0 -0 0
972 4 17.351 3.67984 35.1172 0 0 0
975 4 19.1109 2.43536 38.4007 0 -0 -0
976 4 17.3313 3.06901 33.6998 -0 0 0
978 4 20.6446 2.53241 38.1122 0 -0 0
979 4 16.411 3.85795 32.7452 0 -0 0
993 5 17.8251 1.79484 36.0505 0 -0 0
994 5 19.236 2.78519 35.6263 0 -0 0
995 5 17.251 3.41857 37.8648 0 -0 -0
996 5 18.6775 4.36127 37.4394 0 0 -0
997 5 16.3368 3.7278 35.5137 -0 -0 0
998 5 17.7492 4.69388 35.0817 -0 0 -0
1000 5 18.9515 5.23333 33.0167 -0 0 -0
1003 5 18.7369 1.4182 38.2841 -0 -0 -0
1005 5 18.3423 3.01864 33.2956 0 0 -0
1006 5 16.9762 2.04105 33.7727 0 0 0
1008 5 20.8872 2.01169 37.1859 -0 -0 0
1009 5 20.9375 3.5688 37.9443 -0 -0 -0
1010 5 15.4336 3.97721 33.2127 -0 -0 -0
1028 4 19.2483 7.73097 38.1779 0 0 -0
1031 4 20.7576 7.95826 37.852 0 -0 0
1046 5 17.7159 7.11758 35.9583 0 0 0
1056 5 18.9892 6.70083 37.9335 0 0 -0
1059 5 16.6586 7.49196 33.7565 -0 0 -0
1061 5 21.012 7.41102 36.9443 0 -0 -0
1047 5 19.1278 8.08069 35.4827 0 0 0
229 1 21.2983 7.24586 -6.28355 0 0 -0
1015 5 22.5805 2.07445 38.9656 -0 0 0
1068 5 22.7039 7.98212 38.8078 -0 -0 0
1034 4 21.7312 7.51725 38.9691 -0 0 -0
1066 5 21.8788 6.43774 38.9376 0 0 0
97 1 6.82691 11.9784 -5.82939 -0 -0 0
26 2 1.40549 12.7552 -0.236299 0 0 0
39 1 4.16765 15.4714 -0.35662 -0 0 -0
27 1 4.0898 10.0551 -0.0783887 0 -0 0
811 4 10.5371 8.20935 35.9986 0 0 0
812 4 10.6638 8.75936 37.4259 -0 0 0
813 4 9.66335 9.08535 35.0794 -0 -0 0
817 4 9.6881 8.4359 33.6811 0 -0 0
820 4 8.90196 9.19017 32.6003 0 0 -0
835 5 11.5363 8.14329 35.5681 -0 0 -0
836 5 9.67226 8.81032 37.8757 -0 0 0
837 5 11.0592 9.77317 37.3632 -0 -0 -0
838 5 8.64409 9.13807 35.4621 -0 -0 -0
839 5 10.0762 10.0933 35.0384 -0 -0 -0
841 5 11.5009 10.4616 32.9938 -0 0 -0
846 5 10.723 8.34819 33.3503 0 -0 0
850 5 13.3509 9.07603 37.8469 0 0 -0
851 5 7.83519 9.19527 32.8241 0 0 -0
864 4 10.5494 13.6703 35.9823 -0 0 -0
865 4 10.6852 14.2241 37.4087 0 0 0
866 4 9.66691 14.5365 35.0634 0 -0 0
869 4 11.6227 13.3021 38.2358 0 0 0
870 4 9.67989 13.8756 33.6698 -0 0 -0
872 4 13.1388 13.5662 37.9862 0 -0 -0
873 4 8.85687 14.6175 32.6026 0 0 -0
887 5 10.1263 12.667 36.032 -0 0 -0
888 5 11.5452 13.5997 35.5445 -0 -0 0
889 5 9.69635 14.2647 37.8654 -0 -0 0
890 5 11.077 15.2392 37.3443 -0 -0 -0
891 5 8.65102 14.588 35.4551 -0 0 -0
892 5 10.075 15.5458 35.0105 -0 -0 0
894 5 11.443 15.8595 32.9023 0 -0 -0
897 5 11.393 12.2767 37.9459 -0 -0 0
899 5 10.708 13.7756 33.3218 -0 -0 0
900 5 9.31002 12.8557 33.7754 0 0 0
902 5 13.4111 13.1636 37.0106 0 0 -0
903 5 13.3295 14.6387 37.9475 0 -0 0
904 5 7.80414 14.6524 32.883 -0 -0 0
909 5 15.0967 13.402 38.9012 -0 -0 0
907 5 14.2258 11.8911 38.8666 -0 -0 0
875 4 14.1073 12.9625 39.0282 -0 -0 -0
1087 4 21.7302 12.9842 38.9735 -0 -0 0
1023 4 18.1404 8.1214 35.9427 0 -0 0
1024 4 18.279 8.63423 37.3785 0 -0 -0
1025 4 17.2362 9.04787 35.1136 -0 -0 -0
1029 4 17.1349 8.47037 33.694 -0 -0 0
1032 4 16.3411 9.37246 32.7386 0 -0 -0
1048 5 17.2961 8.63532 37.8497 -0 -0 -0
1049 5 18.6285 9.66503 37.32 -0 -0 -0
1050 5 16.2435 9.10885 35.5595 -0 0 -0
1051 5 17.6646 10.0497 35.0852 -0 -0 0
1053 5 19.1127 10.3849 33.0217 -0 -0 -0
1058 5 18.1415 8.32594 33.3014 -0 -0 0
1062 5 20.9503 9.00836 37.6322 0 0 -0
1063 5 15.3939 9.61923 33.2181 -0 -0 0
1076 4 18.1484 13.6061 35.9115 -0 0 -0
1077 4 18.2863 14.1331 37.345 -0 0 0
1078 4 17.2302 14.4842 35.0445 -0 0 0
1081 4 19.2471 13.2126 38.1385 -0 -0 0
1082 4 17.1481 13.8249 33.6533 -0 0 -0
1084 4 20.7635 13.4542 37.8585 -0 0 0
1085 4 16.3443 14.6204 32.6162 0 -0 -0
1099 5 17.737 12.5972 35.9428 0 -0 -0
1100 5 19.1373 13.5618 35.4551 -0 -0 -0
1101 5 17.3023 14.1353 37.8138 0 -0 0
1102 5 18.6466 15.1606 37.2937 -0 -0 -0
1103 5 16.2344 14.5374 35.4847 -0 0 -0
1104 5 17.6401 15.4924 34.9843 0 -0 0
1106 5 18.9622 15.7605 32.9494 -0 -0 0
1109 5 18.997 12.1965 37.8336 0 -0 0
1111 5 18.1529 13.6474 33.2701 0 0 -0
1112 5 16.6642 12.8573 33.7862 -0 -0 0
1114 5 21.0371 12.9398 36.9373 -0 0 -0
1115 5 20.95 14.5135 37.6818 0 0 -0
1116 5 15.3201 14.6706 32.986 -0 -0 -0
1121 5 22.6945 13.4771 38.8498 -0 -0 -0
1119 5 21.9125 11.9123 38.8967 -0 0 0
40 2 5.95973 17.8755 3.71644 0 -0 0
52 2 5.97333 23.2575 3.68032 -0 0 -0
51 1 4.00072 20.8166 0.442042 -0 -0 0
110 2 8.04957 17.5212 0.404185 -0 -0 -0
112 2 13.4328 17.8722 4.0953 -0 0 -0
123 1 12.4257 21.5275 1.05095 -0 0 0
124 2 13.7173 23.2999 3.94684 -0 0 -0
951 5 11.3801 19.0194 39.3549 0 0 0
961 5 13.7428 18.5683 40.0511 0 0 0
182 2 16.5631 17.1229 2.17712 0 -0 -0
184 2 21.0261 17.8675 4.06984 -0 -0 0
195 1 19.7049 21.5265 1.1218 -0 -0 -0
196 2 21.3235 23.2818 3.87982 -0 0 0
1163 5 19.0424 18.9194 39.3272 0 -0 -0
1173 5 21.3973 18.6068 40.03 0 -0 -0
365 1 0.0398948 -0.680804 6.11276 -0 0 -0
64 2 5.93826 28.6864 3.6207 -0 0 -0
5 1 7.91471 -0.658748 5.61647 0 -0 -0
136 2 13.5359 28.6438 3.58181 0 0 -0
209 1 22.2852 26.4816 6.45629 -0 -0 0
77 1 15.5202 -0.818963 4.99317 0 0 0
208 2 21.1288 28.6625 3.52324 0 0 -0
42 2 2.50628 17.9436 7.73094 -0 -0 -0
44 2 6.21934 17.8835 11.3239 0 -0 0
53 1 7.18215 21.0664 6.92538 0 0 0
54 2 2.49403 23.3228 7.72596 0 0 0
56 2 6.22301 23.2716 11.3207 0 0 0
114 2 10.144 17.9486 7.70956 0 0 -0
116 2 13.8466 17.8936 11.3159 -0 0 -0
125 1 14.8301 21.0656 7.61158 0 -0 -0
126 2 10.1693 23.3603 7.73115 -0 0 0
128 2 13.8223 23.261 11.3289 0 0 0
198 2 17.8396 23.4055 7.72594 -0 0 -0
200 2 21.4166 23.2408 11.3368 0 -0 0
186 2 17.8252 18.0029 7.7269 0 0 -0
188 2 21.4635 17.8931 11.3043 -0 0 -0
197 1 22.429 21.1173 7.55388 -0 0 0
66 2 2.49687 28.7151 7.7343 0 -0 -0
68 2 6.24938 28.6851 11.3087 -0 -0 -0
7 1 3.63279 -0.736519 12.7269 -0 0 -0
65 1 7.34334 26.437 6.51803 0 0 0
140 2 13.8404 28.6579 11.3219 -0 0 -0
138 2 10.1642 28.7522 7.74967 0 -0 0
79 1 11.1371 -0.76991 12.6112 -0 0 -0
137 1 14.787 26.4758 6.57202 0 0 0
212 2 21.4261 28.6248 11.3402 -0 -0 -0
151 1 18.6588 -0.859093 12.4721 0 -0 0
210 2 17.7758 28.7453 7.7365 -0 0 0
60 2 5.34615 23.6363 19.158 0 0 -0
58 2 1.96185 23.4863 15.6073 0 0 -0
48 2 5.22849 18.31 19.1573 0 -0 -0
55 1 3.66651 20.8869 13.6095 -0 -0 0
46 2 1.93102 18.1109 15.6646 -0 0 0
130 2 9.51407 23.5453 15.6875 -0 -0 0
118 2 9.55559 18.0585 15.674 -0 0 0
127 1 11.3145 20.9498 13.8561 0 0 0
132 2 12.728 24.2216 18.5733 -0 -0 0
120 2 13.1716 18.5288 18.5933 0 -0 0
199 1 19.197 21.0223 14.1584 0 0 0
204 2 20.6352 23.9079 18.7104 0 0 -0
202 2 17.0668 23.5594 15.7356 0 0 -0
192 2 21.2048 18.4605 18.2373 -0 -0 -0
190 2 17.1533 18.0507 15.6847 -0 0 -0
67 1 3.92746 26.2282 13.3035 0 -0 0
72 2 5.19836 28.2388 19.0675 0 -0 0
70 2 2.03652 28.787 15.5181 0 0 -0
429 1 0.585793 26.0106 19.522 0 -0 0
142 2 9.60932 28.868 15.5704 -0 0 0
139 1 11.3855 26.2968 13.6056 0 -0 -0
144 2 12.668 28.2047 19.0123 -0 -0 -0
81 1 14.8102 -1.43481 19.2469 -0 -0 0
216 2 20.3286 28.3451 19.0653 -0 -0 0
211 1 18.8551 26.2929 13.7351 -0 -0 -0
214 2 17.1912 28.9259 15.621 -0 0 0
153 1 22.8648 -1.42054 19.2885 0 0 0
417 1 0.096001 20.7453 20.5365 0 0 -0
857 3 11.287 17.6864 21.8926 -0 0 0
868 4 10.2943 16.4497 24.5366 -0 -0 0
876 4 10.3748 16.7196 22.062 0 -0 -0
896 5 10.3407 17.5387 24.54 0 0 -0
910 3 12.1605 21.8399 21.059 0 0 -0
911 3 10.1149 22.4309 21.1943 0 -0 -0
916 4 11.0833 21.4236 25.6793 0 -0 -0
921 4 10.5236 22.1168 24.4099 0 -0 0
927 4 11.2184 21.5044 23.1584 0 -0 0
929 4 11.2625 22.3795 21.8944 0 -0 0
938 5 12.1347 21.6914 25.7835 -0 -0 0
939 5 11.0195 20.3424 25.5565 -0 -0 -0
948 5 9.44462 21.976 24.3458 -0 -0 0
949 5 10.7202 23.188 24.4543 -0 -0 -0
958 5 10.756 20.5426 22.9364 -0 0 0
959 5 12.2639 21.3416 23.4203 -0 0 -0
129 1 14.6536 21.8005 20.2733 0 0 -0
885 5 12.1528 16.2025 25.6402 -0 -0 -0
131 1 12.7335 18.6357 23.9909 -0 -0 0
57 1 8.57453 20.6193 20.1854 0 0 -0
895 5 9.2412 16.1946 24.6547 -0 0 -0
201 1 22.5886 21.3654 22.7752 0 -0 0
1069 3 19.5415 17.0149 21.3039 -0 0 0
1080 4 18.1133 16.6448 24.4524 0 -0 0
1088 4 18.4222 16.5931 21.9418 -0 0 0
1108 5 18.4464 17.6808 24.3904 0 0 -0
1122 3 19.6288 21.7601 21.2115 0 0 0
1123 3 17.5439 21.7028 21.2721 0 0 0
1128 4 18.712 21.4232 25.7539 -0 -0 0
1133 4 18.1119 22.1469 24.5131 -0 0 -0
1139 4 18.8775 21.6239 23.2805 0 -0 0
1141 4 18.6038 22.2847 21.9139 -0 0 0
1150 5 19.7418 21.7555 25.8851 0 -0 0
1151 5 18.7445 20.3482 25.5766 0 -0 0
1160 5 17.0482 21.9258 24.4251 0 -0 -0
1161 5 18.2402 23.2252 24.6067 0 0 -0
1170 5 18.6895 20.5528 23.2064 0 -0 -0
1171 5 19.9323 21.7641 23.5168 -0 0 0
1070 3 17.5112 16.3361 20.9925 -0 -0 -0
203 1 18.7209 19.4204 20.5455 -0 0 0
1107 5 17.0244 16.6385 24.5 0 0 -0
1097 5 19.7632 16.2297 25.7398 0 -0 -0
71 1 3.7337 26.5788 25.8555 0 -0 0
9 1 7.2548 -1.22326 19.7047 0 -0 0
369 1 0.276313 -0.724203 19.5361 0 -0 0
69 1 8.90266 25.5503 20.6711 -0 0 -0
141 1 16.5297 26.4933 21.9296 -0 -0 0
59 1 5.00456 21.164 26.1996 0 -0 0
861 4 10.5475 16.3952 27.0514 -0 0 -0
867 4 10.8612 16.2017 32.0464 -0 0 0
879 5 10.6991 17.2176 29.6095 -0 -0 0
881 5 10.6399 17.4789 27.1235 0 0 -0
893 5 11.0555 17.2688 31.9391 -0 -0 -0
901 5 8.83493 16.4337 31.4467 0 -0 -0
912 4 11.1516 21.1837 28.2116 0 -0 -0
913 4 10.4938 21.6409 29.5308 -0 0 0
914 4 10.3542 21.7422 27.0043 0 -0 0
915 4 11.1937 21.1227 30.8066 -0 0 0
920 4 10.6162 21.8065 32.0783 -0 -0 0
924 4 9.12104 21.522 32.3429 0 -0 0
930 5 11.1597 20.0944 28.1737 -0 -0 -0
931 5 12.1849 21.5301 28.1936 -0 0 0
932 5 10.4815 22.7306 29.5511 0 -0 -0
933 5 9.46606 21.2781 29.5138 -0 -0 0
934 5 10.2082 22.8173 27.109 0 0 0
935 5 9.36531 21.2842 26.9824 0 -0 -0
936 5 12.2605 21.3373 30.7436 -0 -0 0
937 5 11.0746 20.0412 30.8729 0 -0 -0
946 5 10.744 22.8856 31.9925 0 0 -0
954 5 8.54427 21.8655 31.4842 0 0 0
181 1 13.9632 17.2381 -7.17267 0 -0 0
1073 4 18.1186 16.5205 27.0696 0 0 -0
1091 5 18.2462 17.2423 29.6767 0 0 -0
1093 5 18.247 17.5989 27.1626 -0 0 0
1105 5 18.6419 17.2227 32.0275 0 0 -0
1113 5 16.4207 16.4685 31.4902 -0 -0 -0
1124 4 18.7474 21.1283 28.2727 -0 -0 0
1125 4 18.0825 21.5988 29.5732 -0 -0 -0
1126 4 17.9218 21.6298 27.054 -0 -0 0
1127 4 18.8017 21.1017 30.8495 -0 -0 0
1132 4 18.23 21.795 32.1134 -0 -0 -0
1136 4 16.7323 21.5293 32.3744 0 0 -0
1142 5 18.7883 20.0393 28.2496 -0 0 -0
1143 5 19.7717 21.4997 28.2407 -0 0 -0
1144 5 18.0572 22.6885 29.5842 0 0 0
1145 5 17.0586 21.2251 29.5685 0 -0 0
1146 5 17.6453 22.6771 27.1752 0 0 -0
1147 5 16.9904 21.0663 26.9997 0 -0 0
1148 5 19.8657 21.3224 30.7636 0 -0 0
1149 5 18.6963 20.0191 30.9208 0 -0 -0
1158 5 18.3741 22.8722 32.0301 -0 -0 -0
1166 5 16.1551 21.9403 31.5461 0 -0 -0
1169 5 16.417 19.5117 31.675 -0 -0 -0
1094 5 17.0526 16.2957 27.1042 -0 0 -0
11 1 3.74406 -0.0789041 26.057 0 0 -0
1 1 0.167843 -0.0530975 -6.66307 0 -0 -0
133 1 8.53321 27.5531 -8.12103 0 -0 0
143 1 12.1889 24.6942 26.6478 0 -0 -0
215 1 19.7136 24.4244 27.0736 0 -0 -0
205 1 15.8207 27.4802 -8.04461 0 -0 0
121 1 6.24489 22.8157 -5.72336 -0 0 -0
38 2 1.38534 18.1221 -0.263789 -0 0 -0
50 2 1.38856 23.5673 -0.262915 -0 -0 -0
109 1 6.56919 17.4032 -6.48497 0 0 0
917 4 10.5397 19.1246 36.0039 -0 0 -0
918 4 10.6779 19.7069 37.429 -0 0 0
919 4 9.62548 19.9578 35.0808 0 0 0
922 4 11.5622 18.7857 38.3059 0 0 -0
923 4 9.60995 19.312 33.6754 -0 0 0
925 4 13.0831 18.8437 37.9753 0 0 -0
926 4 8.74658 20.0532 32.6338 0 0 0
940 5 10.1314 18.1162 36.0716 0 0 0
941 5 11.5304 19.0566 35.5544 0 -0 0
942 5 9.6848 19.7772 37.8727 -0 -0 -0
943 5 11.0956 20.7124 37.3776 -0 0 -0
944 5 8.61494 19.9793 35.4888 -0 0 0
945 5 9.99964 20.9802 35.0268 0 0 -0
947 5 11.1828 21.4887 32.9535 0 0 0
950 5 11.2108 17.7688 38.131 -0 -0 0
952 5 10.6289 19.2318 33.2968 0 0 -0
953 5 9.23323 18.2944 33.7781 -0 0 0
955 5 13.2667 18.3129 37.0412 0 0 0
956 5 13.3918 19.8774 37.8197 -0 0 0
957 5 7.6967 20.011 32.9238 0 0 0
193 1 13.8951 21.8164 -5.4651 0 -0 0
962 5 15.0354 18.5027 38.8466 -0 -0 -0
122 2 9.08479 23.4838 -0.39716 -0 0 -0
928 4 14.002 18.2221 39.0506 0 -0 -0
960 5 13.9529 17.1338 39.016 -0 -0 0
1172 5 21.8012 17.2766 38.9162 -0 -0 0
1129 4 18.1393 19.0942 35.9968 -0 0 -0
1130 4 18.2934 19.6496 37.4315 -0 -0 0
1131 4 17.2142 19.9453 35.0944 -0 0 -0
1134 4 19.2421 18.7538 38.2685 0 0 -0
1135 4 17.1514 19.3001 33.6879 0 0 0
1137 4 20.7564 18.9378 37.9546 0 0 0
1138 4 16.3298 20.054 32.6165 -0 -0 0
1152 5 17.7304 18.0854 36.0538 -0 -0 0
1153 5 19.1256 19.0309 35.537 0 -0 0
1154 5 17.3096 19.6608 37.9008 0 -0 0
1155 5 18.663 20.6743 37.3917 -0 0 -0
1156 5 16.2152 19.9805 35.5287 -0 -0 -0
1157 5 17.6068 20.9606 35.0379 0 -0 0
1159 5 18.7758 21.463 32.9966 -0 -0 -0
1162 5 18.9616 17.7257 38.0396 0 -0 0
1164 5 18.1667 19.1698 33.3134 0 -0 0
1165 5 16.7174 18.3068 33.8023 -0 -0 0
1167 5 20.9851 18.4552 37.0043 0 -0 0
1168 5 20.9832 19.9976 37.8381 -0 -0 0
265 1 21.4692 21.7021 -5.72677 0 -0 0
1174 5 22.7158 18.7722 38.868 0 -0 0
1140 4 21.7186 18.3587 39.0184 -0 -0 -0
194 2 16.5858 23.5135 -0.429815 -0 -0 -0
253 1 21.4925 16.9141 -6.34559 0 -0 0
62 2 1.40226 29.1003 -0.220413 -0 -0 -0
3 1 4.70061 -0.723231 -1.07434 0 -0 0
63 1 3.86605 26.3546 -0.12157 0 0 -0
134 2 8.92675 29.1188 -0.148721 0 -0 0
135 1 11.167 26.4808 -1.02961 -0 -0 0
75 1 12.4975 -0.605809 -1.63461 -0 0 -0
207 1 18.7192 26.3881 -1.3626 0 -0 0
206 2 16.6365 29.1533 -0.129361 -0 0 0
147 1 20.0321 -0.67443 -1.70923 0 -0 0
218 2 24.5846 0.426449 1.70177 0 0 -0
220 2 28.5202 1.9634 3.98747 -0 -0 0
230 2 24.1382 6.30776 2.17458 0 0 0
231 1 27.215 5.08221 0.946939 0 -0 0
232 2 28.6033 7.12061 4.10516 -0 -0 -0
1193 4 29.1369 1.95094 39.2299 0 -0 -0
1216 5 26.5015 2.64216 39.4265 0 0 -0
1225 5 28.9236 0.899313 39.4214 0 0 0
1226 5 28.9756 2.51162 40.1506 -0 -0 0
1279 5 28.9925 7.81139 39.9536 0 0 -0
1269 5 26.6433 7.84695 39.2276 0 -0 -0
290 2 32.186 0.547689 1.78416 -0 0 0
292 2 36.1559 1.85328 4.15133 -0 0 -0
302 2 31.7775 6.70462 2.28607 -0 -0 0
303 1 34.5601 4.92746 1.14473 0 -0 -0
304 2 36.316 7.06578 4.209 -0 -0 0
610 4 36.743 1.85971 39.3889 0 -0 -0
633 5 34.1351 2.47218 39.347 -0 -0 0
642 5 36.4949 0.80423 39.5007 -0 0 0
643 5 36.4889 2.38025 40.3123 -0 0 0
644 5 37.8205 1.94138 39.2454 0 0 -0
663 4 36.9019 7.33638 39.2839 -0 0 -0
695 5 36.9733 6.25523 39.1651 0 0 -0
696 5 36.4568 7.57357 40.2502 0 -0 -0
697 5 37.9128 7.74391 39.2832 0 -0 -0
686 5 34.2413 7.75702 39.2733 0 0 -0
377 1 -0.198653 4.76909 6.13395 0 -0 -0
364 2 44.0348 1.76136 3.60912 -0 -0 0
376 2 44.0231 7.18264 3.58112 0 -0 -0
242 2 24.1622 11.6778 2.16061 0 0 -0
243 1 27.1309 10.4781 0.645857 0 -0 0
244 2 28.5547 12.4907 4.10305 0 -0 -0
527 5 26.6255 13.3051 39.207 -0 0 0
537 5 28.974 13.2238 39.9682 0 0 0
255 1 27.1229 15.8916 0.837809 -0 0 -0
327 1 34.5805 15.8736 1.02561 -0 -0 -0
314 2 31.7291 12.1499 2.37023 -0 -0 -0
315 1 34.3386 10.4162 0.955329 0 0 -0
316 2 36.3061 12.4463 4.19307 -0 0 0
716 4 36.9019 12.7494 39.2834 -0 0 -0
739 5 34.258 13.2149 39.2538 0 0 -0
748 5 36.9528 11.6673 39.1628 -0 0 0
749 5 36.4527 12.988 40.2475 -0 -0 0
750 5 37.921 13.1357 39.2967 -0 0 -0
401 1 -0.297813 15.6061 6.37226 -0 0 0
389 1 -0.308934 10.2254 6.34593 0 -0 0
388 2 44.0349 12.5578 3.59108 0 -0 0
222 2 25.3202 1.69209 7.69416 -0 0 0
224 2 29.0804 1.70588 11.3362 -0 0 -0
233 1 30.3775 4.4526 7.02642 -0 0 0
234 2 25.356 7.14013 7.69913 -0 0 -0
235 1 26.4111 4.65168 12.7982 -0 0 -0
236 2 29.1112 7.1206 11.321 0 -0 -0
294 2 32.9378 1.66975 7.68882 0 -0 -0
296 2 36.6995 1.69818 11.3377 -0 0 0
306 2 32.991 7.1545 7.69856 0 0 0
308 2 36.7385 7.1266 11.314 0 0 0
305 1 38.355 4.60264 6.61127 0 -0 -0
366 2 40.5805 1.6782 7.7253 -0 -0 0
368 2 44.3647 1.73089 11.3171 -0 -0 -0
378 2 40.6978 7.22352 7.7746 0 0 -0
379 1 41.9696 4.74667 12.8738 -0 0 -0
380 2 44.3956 7.15807 11.2928 -0 -0 0
257 1 30.2898 15.6059 7.08864 -0 -0 -0
245 1 30.2085 10.0964 7.13873 -0 -0 0
246 2 25.4136 12.5755 7.71039 -0 -0 -0
248 2 29.0617 12.469 11.3314 -0 0 0
318 2 33.0375 12.5771 7.70406 0 -0 -0
320 2 36.6809 12.4657 11.3381 -0 0 0
329 1 38.1539 15.5281 6.88137 0 0 0
317 1 38.1563 10.1091 6.77072 -0 -0 0
390 2 40.7301 12.6304 7.77342 0 -0 -0
392 2 44.3455 12.5024 11.3104 0 0 0
165 1 24.0759 5.33021 19.0435 0 -0 0
228 2 28.8415 1.89323 18.7451 0 -0 0
238 2 24.9173 7.14996 15.5522 -0 0 -0
226 2 24.9451 1.78717 15.4898 -0 0 -0
312 2 36.6412 7.29613 18.6227 0 0 -0
310 2 32.5032 7.17138 15.5921 0 0 -0
300 2 36.641 1.81406 18.4413 0 -0 0
298 2 32.5504 1.80609 15.5246 0 0 -0
307 1 34.3347 4.69006 13.0468 0 -0 -0
237 1 31.0479 5.33369 19.2587 -0 0 -0
370 2 40.174 1.78758 15.502 0 0 -0
372 2 43.4091 2.08551 19.2323 -0 -0 -0
382 2 40.1455 7.18195 15.539 0 0 -0
384 2 43.447 7.45212 19.235 0 -0 0
309 1 40.1865 5.17231 19.3054 0 0 -0
250 2 24.7312 12.7593 15.7715 -0 -0 0
252 2 29.2975 12.8074 18.1284 0 -0 0
259 1 26.5528 15.5345 13.7107 -0 -0 -0
240 2 28.8632 8.12299 18.0306 -0 -0 -0
247 1 26.7169 10.1971 13.9255 0 -0 0
322 2 32.3954 12.7341 15.7554 -0 0 -0
331 1 34.146 15.5068 13.5738 -0 -0 -0
319 1 34.215 10.1828 13.701 -0 -0 -0
324 2 36.449 12.9195 18.5732 0 -0 -0
403 1 41.9997 15.5478 13.417 -0 0 0
396 2 43.4088 12.8049 19.2184 0 0 -0
394 2 40.0569 12.6809 15.6473 -0 0 -0
391 1 41.9606 10.2106 13.5542 0 -0 -0
1175 3 25.7121 6.32564 21.0409 -0 0 -0
1176 3 25.2992 4.40198 21.1983 0 0 -0
1181 4 26.5295 5.21502 25.7378 0 0 -0
1186 4 25.8097 5.88095 24.5297 -0 -0 0
1192 4 26.21 5.19047 23.2088 -0 -0 0
1194 4 25.2814 5.48644 22.019 -0 0 -0
1203 5 27.5856 5.48479 25.7279 0 0 0
1204 5 26.4581 4.12899 25.6783 -0 0 -0
1213 5 24.7328 5.78129 24.6656 -0 -0 0
1214 5 26.0529 6.94295 24.4964 -0 0 -0
1223 5 26.0619 4.14004 23.4593 0 0 -0
1224 5 27.2588 5.3624 22.9668 -0 0 -0
239 1 26.7629 2.23411 21.9646 -0 -0 0
592 3 33.4619 6.22912 21.0385 0 0 -0
593 3 32.5825 4.68549 21.2634 0 0 0
598 4 34.1171 5.13706 25.7547 0 0 -0
603 4 33.3665 5.82578 24.5891 -0 0 0
609 4 33.7656 5.21571 23.2384 0 0 -0
611 4 32.8318 5.7055 22.1102 0 0 0
620 5 35.1682 5.42549 25.7461 -0 -0 0
621 5 34.0605 4.05262 25.6604 0 -0 -0
630 5 32.2933 5.6918 24.7249 -0 -0 -0
631 5 33.5891 6.89276 24.5999 -0 0 -0
640 5 33.6376 4.14094 23.3672 -0 -0 -0
641 5 34.8134 5.44393 23.0433 -0 0 0
311 1 34.8347 3.2896 21.1763 0 -0 -0
492 4 26.4773 15.7847 25.7147 0 -0 -0
503 4 26.3938 15.9778 23.1779 -0 0 -0
514 5 27.5377 16.0368 25.7185 0 -0 -0
515 5 26.3789 14.7017 25.6403 -0 -0 -0
249 1 30.2769 9.53689 25.8091 -0 -0 -0
534 5 26.2679 14.8966 23.1217 -0 -0 0
1228 3 26.433 11.5839 21.1591 -0 0 0
1229 3 24.8185 10.5966 21.4909 0 0 -0
1234 4 26.4997 10.508 25.8493 -0 -0 -0
1239 4 25.7947 11.2261 24.6827 -0 0 0
1245 4 26.3349 10.717 23.3447 -0 0 -0
1247 4 25.5998 11.4413 22.1998 -0 -0 -0
1256 5 27.5529 10.7886 25.8629 0 -0 0
1257 5 26.4197 9.42658 25.7387 -0 -0 0
1266 5 24.7242 11.0264 24.7294 -0 -0 -0
1267 5 25.9588 12.3005 24.7648 0 0 0
1276 5 26.1491 9.64298 23.342 -0 -0 0
1277 5 27.4095 10.8942 23.3 -0 0 -0
263 1 26.9852 14.1856 20.5627 -0 0 -0
251 1 26.8425 8.84194 20.9765 0 0 -0
487 3 24.7657 15.9149 21.4004 -0 -0 -0
645 3 34.3794 11.5346 21.068 0 0 0