LAMMPS (23 Jun 2022)
OMP_NUM_THREADS environment is not set. Defaulting to 1 thread. (src/comm.cpp:98)
  using 1 OpenMP thread(s) per MPI task
units                real
atom_style           full
boundary             p p p
dielectric           1
special_bonds        lj/coul 0.0 0.0 1.0

pair_style           lj/charmm/coul/long/opt 9 10.00000
bond_style           harmonic
angle_style          harmonic
dihedral_style       harmonic
improper_style       umbrella
kspace_style         pppm 0.0001
dielectric            2.8

read_data            data.oleic_xligand.test
Reading data file ...
  orthogonal box = (0 0 0) to (60 60 60)
  4 by 4 by 4 MPI processor grid
  reading atoms ...
  122 atoms
  scanning bonds ...
  4 = max bonds/atom
  scanning angles ...
  6 = max angles/atom
  scanning dihedrals ...
  15 = max dihedrals/atom
  scanning impropers ...
  3 = max impropers/atom
  reading bonds ...
  123 bonds
  reading angles ...
  228 angles
  reading dihedrals ...
  329 dihedrals
  reading impropers ...
  48 impropers
Finding 1-2 1-3 1-4 neighbors ...
  special bond factors lj:    0        0        1       
  special bond factors coul:  0        0        1       
     4 = max # of 1-2 neighbors
     8 = max # of 1-3 neighbors
    11 = max # of special neighbors
  special bonds CPU = 0.002 seconds
  read_data CPU = 0.026 seconds



pair_modify          mix geometric
neighbor             2.0 multi
neigh_modify         every 2 delay 4 check yes
thermo_style         multi
thermo_modify        line multi format float %14.6f flush yes
variable             input string in.oleic_xligand.test
variable             sname string oleic_xligand.test


timestep             1

print                .
.
print                ==========================================
==========================================
print                "500 steps CG Minimization"
500 steps CG Minimization
print                ==========================================
==========================================
print                .
.

dump                 1 all custom 25 ${sname}.min.lammps id type xu yu zu vx vy vz
dump                 1 all custom 25 oleic_xligand.test.min.lammps id type xu yu zu vx vy vz
thermo               10
min_style            sd
minimize             1.0e-4 1.0e-4 500 5000

CITE-CITE-CITE-CITE-CITE-CITE-CITE-CITE-CITE-CITE-CITE-CITE-CITE

Your simulation uses code contributions which should be cited:

- neighbor multi command: doi:10.1016/j.cpc.2008.03.005, doi:10.1007/s40571-020-00361-2

@Article{Intveld08,
 author =  {P.{\,}J.~in{\,}'t~Veld and S.{\,}J.~Plimpton and G.{\,}S.~Grest},
 title =   {Accurate and Efficient Methods for Modeling Colloidal
            Mixtures in an Explicit Solvent using Molecular Dynamics},
 journal = {Comp.~Phys.~Comm.},
 year =    2008,
 volume =  179,
 pages =   {320--329}
}

@article{Stratford2018,
 author = {Stratford, Kevin and Shire, Tom and Hanley, Kevin},
 title = {Implementation of multi-level contact detection in LAMMPS},
 year = {2018}
}

@article{Shire2020,
 author = {Shire, Tom and Hanley, Kevin J. and Stratford, Kevin},
 title = {DEM simulations of polydisperse media: efficient contact
          detection applied to investigate the quasi-static limit},
 journal = {Computational Particle Mechanics},
 year = {2020}
}

CITE-CITE-CITE-CITE-CITE-CITE-CITE-CITE-CITE-CITE-CITE-CITE-CITE

WARNING: Using 'neigh_modify every 1 delay 0 check yes' setting during minimization (src/min.cpp:187)
PPPM initialization ...
WARNING: System is not charge neutral, net charge = -0.0006 (src/kspace.cpp:327)
  using 12-bit tables for long-range coulomb (src/kspace.cpp:342)
  G vector (1/distance) = 0.17549664
  grid = 12 12 12
  stencil order = 5
  estimated absolute RMS force accuracy = 0.00090018282
  estimated relative force accuracy = 2.7108738e-06
  using double precision FFTW3
  3d grid and FFT values/proc = 512 48
Generated 28 of 28 mixed pair_coeff terms from geometric mixing rule
Neighbor list info ...
  update every 1 steps, delay 0 steps, check yes
  max neighbors/atom: 2000, page size: 100000
  master list distance cutoff = 12
  ghost atom cutoff = 12
  binsize = 6, bins = 10 10 10
  1 neighbor lists, perpetual/occasional/extra = 1 0 0
  (1) pair lj/charmm/coul/long/opt, perpetual
      attributes: half, newton on
      pair build: half/multi/newton
      stencil: half/multi/3d
      bin: multi
Per MPI rank memory allocation (min/avg/max) = 15.96 | 16.12 | 17.74 Mbytes
------------ Step              0 ----- CPU =            0 (sec) -------------
TotEng   =     204.657494 KinEng   =       0.000000 Temp     =       0.000000 
PotEng   =     204.657494 E_bond   =      28.228952 E_angle  =      14.755458 
E_dihed  =      16.230080 E_impro  =       0.012484 E_vdwl   =     148.696826 
E_coul   =       7.783765 E_long   =     -11.050072 Press    =     164.706316
------------ Step             10 ----- CPU =  0.003330761 (sec) -------------
TotEng   =     139.641492 KinEng   =       0.000000 Temp     =       0.000000 
PotEng   =     139.641492 E_bond   =       5.633247 E_angle  =      12.583184 
E_dihed  =      17.780549 E_impro  =       0.070362 E_vdwl   =     106.749387 
E_coul   =       7.873261 E_long   =     -11.048498 Press    =     114.865104
------------ Step             20 ----- CPU =  0.006339778 (sec) -------------
TotEng   =     133.137441 KinEng   =       0.000000 Temp     =       0.000000 
PotEng   =     133.137441 E_bond   =       5.831835 E_angle  =      12.711374 
E_dihed  =      18.647429 E_impro  =       0.080350 E_vdwl   =      99.024077 
E_coul   =       7.891023 E_long   =     -11.048647 Press    =      97.768171
------------ Step             30 ----- CPU =  0.009519655 (sec) -------------
TotEng   =     128.944700 KinEng   =       0.000000 Temp     =       0.000000 
PotEng   =     128.944700 E_bond   =       6.371292 E_angle  =      13.050814 
E_dihed  =      19.437616 E_impro  =       0.086589 E_vdwl   =      93.154694 
E_coul   =       7.892750 E_long   =     -11.049054 Press    =      81.430680
------------ Step             40 ----- CPU =   0.01249448 (sec) -------------
TotEng   =     123.512787 KinEng   =       0.000000 Temp     =       0.000000 
PotEng   =     123.512787 E_bond   =       8.008175 E_angle  =      15.198362 
E_dihed  =      20.722296 E_impro  =       0.089824 E_vdwl   =      82.659256 
E_coul   =       7.885037 E_long   =     -11.050162 Press    =      48.030513
------------ Step             50 ----- CPU =   0.01553158 (sec) -------------
TotEng   =     120.964312 KinEng   =       0.000000 Temp     =       0.000000 
PotEng   =     120.964312 E_bond   =       9.360001 E_angle  =      17.115396 
E_dihed  =      21.189452 E_impro  =       0.092921 E_vdwl   =      76.368214 
E_coul   =       7.888558 E_long   =     -11.050230 Press    =      24.363866
------------ Step             60 ----- CPU =    0.0185095 (sec) -------------
TotEng   =     120.833815 KinEng   =       0.000000 Temp     =       0.000000 
PotEng   =     120.833815 E_bond   =       9.366765 E_angle  =      17.110622 
E_dihed  =      21.168082 E_impro  =       0.091801 E_vdwl   =      76.258601 
E_coul   =       7.888055 E_long   =     -11.050110 Press    =      23.955084
------------ Step             70 ----- CPU =    0.0214794 (sec) -------------
TotEng   =     120.654822 KinEng   =       0.000000 Temp     =       0.000000 
PotEng   =     120.654822 E_bond   =       9.380851 E_angle  =      17.127097 
E_dihed  =      21.132841 E_impro  =       0.090141 E_vdwl   =      76.086055 
E_coul   =       7.887777 E_long   =     -11.049941 Press    =      23.329774
------------ Step             80 ----- CPU =   0.02461985 (sec) -------------
TotEng   =     119.654966 KinEng   =       0.000000 Temp     =       0.000000 
PotEng   =     119.654966 E_bond   =       9.761661 E_angle  =      17.341431 
E_dihed  =      20.873208 E_impro  =       0.092266 E_vdwl   =      74.745388 
E_coul   =       7.890443 E_long   =     -11.049431 Press    =      19.023554
------------ Step             82 ----- CPU =   0.02562314 (sec) -------------
TotEng   =     119.491144 KinEng   =       0.000000 Temp     =       0.000000 
PotEng   =     119.491144 E_bond   =       9.663824 E_angle  =      17.405119 
E_dihed  =      20.865631 E_impro  =       0.088452 E_vdwl   =      74.627036 
E_coul   =       7.890344 E_long   =     -11.049262 Press    =      17.618005
Loop time of 0.0256755 on 64 procs for 82 steps with 122 atoms

97.9% CPU use with 64 MPI tasks x 1 OpenMP threads

Minimization stats:
  Stopping criterion = energy tolerance
  Energy initial, next-to-last, final = 
      204.657493733559   119.500733089187   119.491143716597
  Force two-norm initial, final = 412.38829 6.3014227
  Force max component initial, final = 109.9411 2.6643472
  Final line search alpha, max atom move = 0.096861435 0.2580725
  Iterations, force evaluations = 82 163

MPI task timing breakdown:
Section |  min time  |  avg time  |  max time  |%varavg| %total
---------------------------------------------------------------
Pair    | 4.9255e-05 | 0.00022408 | 0.0036074  |   0.0 |  0.87
Bond    | 2.509e-05  | 0.00011427 | 0.0014531  |   0.0 |  0.45
Kspace  | 0.014069   | 0.018848   | 0.019899   |   0.8 | 73.41
Neigh   | 0          | 0          | 0          |   0.0 |  0.00
Comm    | 2.9328e-05 | 0.0011964  | 0.0024589  |   2.1 |  4.66
Output  | 0.00079924 | 0.00089166 | 0.0010994  |   0.0 |  3.47
Modify  | 0          | 0          | 0          |   0.0 |  0.00
Other   |            | 0.004401   |            |       | 17.14

Nlocal:        1.90625 ave          31 max           0 min
Histogram: 59 0 1 0 0 0 0 1 1 2
Nghost:        29.4062 ave         108 max           0 min
Histogram: 17 19 6 4 2 2 10 2 0 2
Neighs:        45.5312 ave         932 max           0 min
Histogram: 58 2 0 0 0 2 0 0 1 1

Total # of neighbors = 2914
Ave neighs/atom = 23.885246
Ave special neighs/atom = 5.7540984
Neighbor list builds = 0
Dangerous builds = 0
min_style            cg
minimize             1.0e-4 1.0e-4 500 5000
WARNING: Using 'neigh_modify every 1 delay 0 check yes' setting during minimization (src/min.cpp:187)
PPPM initialization ...
  using 12-bit tables for long-range coulomb (src/kspace.cpp:342)
  G vector (1/distance) = 0.17549664
  grid = 12 12 12
  stencil order = 5
  estimated absolute RMS force accuracy = 0.00090018282
  estimated relative force accuracy = 2.7108738e-06
  using double precision FFTW3
  3d grid and FFT values/proc = 512 48
Generated 28 of 28 mixed pair_coeff terms from geometric mixing rule
Per MPI rank memory allocation (min/avg/max) = 15.96 | 16.12 | 17.74 Mbytes
------------ Step             82 ----- CPU =            0 (sec) -------------
TotEng   =     119.491144 KinEng   =       0.000000 Temp     =       0.000000 
PotEng   =     119.491144 E_bond   =       9.663824 E_angle  =      17.405119 
E_dihed  =      20.865631 E_impro  =       0.088452 E_vdwl   =      74.627036 
E_coul   =       7.890344 E_long   =     -11.049262 Press    =      17.618005
------------ Step             83 ----- CPU =  0.000716094 (sec) -------------
TotEng   =     119.483626 KinEng   =       0.000000 Temp     =       0.000000 
PotEng   =     119.483626 E_bond   =       9.672196 E_angle  =      17.437532 
E_dihed  =      20.865188 E_impro  =       0.087893 E_vdwl   =      74.579942 
E_coul   =       7.890116 E_long   =     -11.049241 Press    =      17.446791
Loop time of 0.000774065 on 64 procs for 1 steps with 122 atoms

99.1% CPU use with 64 MPI tasks x 1 OpenMP threads

Minimization stats:
  Stopping criterion = energy tolerance
  Energy initial, next-to-last, final = 
      119.491143716597   119.491143716597   119.483625922273
  Force two-norm initial, final = 6.3014227 3.6775683
  Force max component initial, final = 2.6643472 0.90410851
  Final line search alpha, max atom move = 0.037532645 0.033933584
  Iterations, force evaluations = 1 2

MPI task timing breakdown:
Section |  min time  |  avg time  |  max time  |%varavg| %total
---------------------------------------------------------------
Pair    | 1.202e-06  | 4.9445e-06 | 6.8177e-05 |   0.0 |  0.64
Bond    | 6.81e-07   | 2.5689e-06 | 2.8844e-05 |   0.0 |  0.33
Kspace  | 0.00026131 | 0.00034954 | 0.0003731  |   0.0 | 45.16
Neigh   | 0          | 0          | 0          |   0.0 |  0.00
Comm    | 9.21e-07   | 2.5493e-05 | 5.3671e-05 |   0.0 |  3.29
Output  | 0          | 0          | 0          |   0.0 |  0.00
Modify  | 0          | 0          | 0          |   0.0 |  0.00
Other   |            | 0.0003915  |            |       | 50.58

Nlocal:        1.90625 ave          31 max           0 min
Histogram: 59 0 1 0 0 0 0 1 1 2
Nghost:        29.7031 ave         108 max           0 min
Histogram: 17 19 6 4 2 2 10 2 0 2
Neighs:        45.3438 ave         931 max           0 min
Histogram: 58 2 0 0 0 2 0 0 1 1

Total # of neighbors = 2902
Ave neighs/atom = 23.786885
Ave special neighs/atom = 5.7540984
Neighbor list builds = 0
Dangerous builds = 0
#now                 minimize the entire system
minimize             1.0e-4 1.0e-4 500 5000
WARNING: Using 'neigh_modify every 1 delay 0 check yes' setting during minimization (src/min.cpp:187)
PPPM initialization ...
  using 12-bit tables for long-range coulomb (src/kspace.cpp:342)
  G vector (1/distance) = 0.17549664
  grid = 12 12 12
  stencil order = 5
  estimated absolute RMS force accuracy = 0.00090018282
  estimated relative force accuracy = 2.7108738e-06
  using double precision FFTW3
  3d grid and FFT values/proc = 512 48
Generated 28 of 28 mixed pair_coeff terms from geometric mixing rule
Per MPI rank memory allocation (min/avg/max) = 15.96 | 16.12 | 17.74 Mbytes
------------ Step             83 ----- CPU =            0 (sec) -------------
TotEng   =     119.483626 KinEng   =       0.000000 Temp     =       0.000000 
PotEng   =     119.483626 E_bond   =       9.672196 E_angle  =      17.437532 
E_dihed  =      20.865188 E_impro  =       0.087893 E_vdwl   =      74.579942 
E_coul   =       7.890116 E_long   =     -11.049241 Press    =      17.446791
------------ Step             84 ----- CPU =  0.000693793 (sec) -------------
TotEng   =     119.478856 KinEng   =       0.000000 Temp     =       0.000000 
PotEng   =     119.478856 E_bond   =       9.672550 E_angle  =      17.424731 
E_dihed  =      20.864210 E_impro  =       0.088606 E_vdwl   =      74.587826 
E_coul   =       7.890197 E_long   =     -11.049265 Press    =      17.548324
Loop time of 0.000746369 on 64 procs for 1 steps with 122 atoms

98.8% CPU use with 64 MPI tasks x 1 OpenMP threads

Minimization stats:
  Stopping criterion = energy tolerance
  Energy initial, next-to-last, final = 
      119.483625922273   119.483625922273   119.478855790746
  Force two-norm initial, final = 3.6775683 4.5873148
  Force max component initial, final = 0.90410851 1.8127289
  Final line search alpha, max atom move = 0.11060619 0.20049904
  Iterations, force evaluations = 1 2

MPI task timing breakdown:
Section |  min time  |  avg time  |  max time  |%varavg| %total
---------------------------------------------------------------
Pair    | 1.192e-06  | 4.9127e-06 | 6.943e-05  |   0.0 |  0.66
Bond    | 7.1e-07    | 2.5949e-06 | 2.8584e-05 |   0.0 |  0.35
Kspace  | 0.00027076 | 0.00035948 | 0.00038216 |   0.0 | 48.16
Neigh   | 0          | 0          | 0          |   0.0 |  0.00
Comm    | 9.11e-07   | 2.4457e-05 | 4.8473e-05 |   0.0 |  3.28
Output  | 0          | 0          | 0          |   0.0 |  0.00
Modify  | 0          | 0          | 0          |   0.0 |  0.00
Other   |            | 0.0003549  |            |       | 47.55

Nlocal:        1.90625 ave          31 max           0 min
Histogram: 59 0 1 0 0 0 0 1 1 2
Nghost:        29.7031 ave         108 max           0 min
Histogram: 17 19 6 4 2 2 10 2 0 2
Neighs:        45.3438 ave         931 max           0 min
Histogram: 58 2 0 0 0 2 0 0 1 1

Total # of neighbors = 2902
Ave neighs/atom = 23.786885
Ave special neighs/atom = 5.7540984
Neighbor list builds = 0
Dangerous builds = 0
undump               1


print                .
.
print                =====================================
=====================================
print                "NVT dynamics to heat system"
NVT dynamics to heat system
print                =====================================
=====================================
print                .
.

reset_timestep       0
fix                  shakeH all shake 0.0001 20 500 m 1.0079
      12 = # of size 2 clusters
      28 = # of size 3 clusters
       1 = # of size 4 clusters
       0 = # of frozen angles
  find clusters CPU = 0.001 seconds
velocity             all create 0.0 12345678 dist uniform
thermo               100
thermo_style         multi
WARNING: New thermo_style command, previous thermo_modify settings will be lost (src/output.cpp:903)
dump                 1 all custom 1000 ${sname}.heat.lammpstrj id type xu yu zu vx vy vz
dump                 1 all custom 1000 oleic_xligand.test.heat.lammpstrj id type xu yu zu vx vy vz
fix                  4 all nvt temp 1.0 ${rtemp} 100.0
fix                  4 all nvt temp 1.0 298 100.0
run                  10000
PPPM initialization ...
  using 12-bit tables for long-range coulomb (src/kspace.cpp:342)
  G vector (1/distance) = 0.17549664
  grid = 12 12 12
  stencil order = 5
  estimated absolute RMS force accuracy = 0.00090018282
  estimated relative force accuracy = 2.7108738e-06
  using double precision FFTW3
  3d grid and FFT values/proc = 512 48
Generated 28 of 28 mixed pair_coeff terms from geometric mixing rule
SHAKE stats (type/ave/delta/count) on step 0
Bond:    2   1.09322   0.00725566        60
Bond:    6   1.02216   0.00635552        10
Bond:   10   1.35979   0                  1
Bond:   12   0.979672  0                  1
Per MPI rank memory allocation (min/avg/max) = 15.71 | 15.87 | 17.49 Mbytes
------------ Step              0 ----- CPU =            0 (sec) -------------
TotEng   =       119.1974 KinEng   =         0.0000 Temp     =         0.0000 
PotEng   =       119.1974 E_bond   =         9.3911 E_angle  =        17.4247 
E_dihed  =        20.8642 E_impro  =         0.0886 E_vdwl   =        74.5878 
E_coul   =         7.8902 E_long   =       -11.0493 Press    =        17.4932
------------ Step            100 ----- CPU =    0.0124529 (sec) -------------
TotEng   =       119.8069 KinEng   =         2.0238 Temp     =         6.9755 
PotEng   =       117.7831 E_bond   =        10.5694 E_angle  =        19.3306 
E_dihed  =        20.0512 E_impro  =         0.1066 E_vdwl   =        70.8784 
E_coul   =         7.8956 E_long   =       -11.0486 Press    =         1.0500
------------ Step            200 ----- CPU =   0.02477378 (sec) -------------
TotEng   =       118.4532 KinEng   =         3.2646 Temp     =        11.2521 
PotEng   =       115.1887 E_bond   =        10.7256 E_angle  =        21.9169 
E_dihed  =        18.2690 E_impro  =         0.1792 E_vdwl   =        67.2976 
E_coul   =         7.8499 E_long   =       -11.0495 Press    =        -6.9851
------------ Step            300 ----- CPU =   0.03735423 (sec) -------------
TotEng   =       117.0230 KinEng   =         3.1755 Temp     =        10.9450 
PotEng   =       113.8475 E_bond   =         9.7318 E_angle  =        22.4523 
E_dihed  =        17.9414 E_impro  =         0.3550 E_vdwl   =        66.6570 
E_coul   =         7.7642 E_long   =       -11.0541 Press    =        -0.2754
------------ Step            400 ----- CPU =   0.04995491 (sec) -------------
TotEng   =       115.1872 KinEng   =         4.6143 Temp     =        15.9041 
PotEng   =       110.5729 E_bond   =         9.4321 E_angle  =        19.8642 
E_dihed  =        18.4691 E_impro  =         0.2325 E_vdwl   =        65.8741 
E_coul   =         7.7612 E_long   =       -11.0602 Press    =         0.6443
SHAKE stats (type/ave/delta/count) on step 500
Bond:    2   1.09      7.48679e-09       45
Bond:    6   1.02      1.48925e-09       10
Bond:   10   1.36      0                  1
Bond:   12   0.98      0                  1
------------ Step            500 ----- CPU =   0.06268298 (sec) -------------
TotEng   =       114.3149 KinEng   =         3.7075 Temp     =        12.7786 
PotEng   =       110.6075 E_bond   =        10.2352 E_angle  =        21.9606 
E_dihed  =        15.2487 E_impro  =         0.1881 E_vdwl   =        66.3036 
E_coul   =         7.7338 E_long   =       -11.0626 Press    =        -2.1723
------------ Step            600 ----- CPU =   0.07517026 (sec) -------------
TotEng   =       115.1986 KinEng   =         3.2780 Temp     =        11.2983 
PotEng   =       111.9206 E_bond   =        10.4010 E_angle  =        20.7881 
E_dihed  =        17.0572 E_impro  =         0.2677 E_vdwl   =        66.7097 
E_coul   =         7.7609 E_long   =       -11.0640 Press    =        -3.6210
------------ Step            700 ----- CPU =    0.0877277 (sec) -------------
TotEng   =       116.8264 KinEng   =         4.0343 Temp     =        13.9051 
PotEng   =       112.7920 E_bond   =         9.6443 E_angle  =        20.8776 
E_dihed  =        18.1224 E_impro  =         0.3255 E_vdwl   =        67.1133 
E_coul   =         7.7729 E_long   =       -11.0640 Press    =         1.3831
------------ Step            800 ----- CPU =    0.1003573 (sec) -------------
TotEng   =       118.7711 KinEng   =         3.1989 Temp     =        11.0257 
PotEng   =       115.5721 E_bond   =         9.2710 E_angle  =        24.5660 
E_dihed  =        18.8180 E_impro  =         0.6411 E_vdwl   =        65.6065 
E_coul   =         7.7329 E_long   =       -11.0633 Press    =         0.9882
------------ Step            900 ----- CPU =    0.1129236 (sec) -------------
TotEng   =       121.2633 KinEng   =         6.7188 Temp     =        23.1576 
PotEng   =       114.5445 E_bond   =        10.9106 E_angle  =        20.8561 
E_dihed  =        18.5285 E_impro  =         0.4436 E_vdwl   =        67.0829 
E_coul   =         7.7882 E_long   =       -11.0656 Press    =        -7.6570
SHAKE stats (type/ave/delta/count) on step 1000
Bond:    2   1.09      1.66241e-07       60
Bond:    6   1.02      7.69105e-09       10
Bond:   10   1.36      0                  1
Bond:   12   0.98      0                  1
------------ Step           1000 ----- CPU =    0.1258405 (sec) -------------
TotEng   =       124.2836 KinEng   =         9.3428 Temp     =        32.2020 
PotEng   =       114.9408 E_bond   =        10.0963 E_angle  =        22.9748 
E_dihed  =        17.9278 E_impro  =         0.0930 E_vdwl   =        67.1660 
E_coul   =         7.7458 E_long   =       -11.0628 Press    =         0.1158
------------ Step           1100 ----- CPU =    0.1385289 (sec) -------------
TotEng   =       126.5908 KinEng   =         9.5884 Temp     =        33.0485 
PotEng   =       117.0024 E_bond   =        10.0742 E_angle  =        21.4775 
E_dihed  =        20.9050 E_impro  =         0.5133 E_vdwl   =        67.3376 
E_coul   =         7.7571 E_long   =       -11.0623 Press    =        -0.3517
------------ Step           1200 ----- CPU =    0.1512384 (sec) -------------
TotEng   =       127.8457 KinEng   =        10.0616 Temp     =        34.6792 
PotEng   =       117.7841 E_bond   =         9.5655 E_angle  =        23.3283 
E_dihed  =        20.4629 E_impro  =         0.3846 E_vdwl   =        67.3674 
E_coul   =         7.7331 E_long   =       -11.0577 Press    =         8.0672
------------ Step           1300 ----- CPU =    0.1639827 (sec) -------------
TotEng   =       129.9568 KinEng   =         9.7388 Temp     =        33.5666 
PotEng   =       120.2181 E_bond   =         9.1819 E_angle  =        18.0311 
E_dihed  =        27.7115 E_impro  =         0.4211 E_vdwl   =        68.1342 
E_coul   =         7.7902 E_long   =       -11.0520 Press    =        11.2878
------------ Step           1400 ----- CPU =    0.1768187 (sec) -------------
TotEng   =       133.8133 KinEng   =        13.1913 Temp     =        45.4665 
PotEng   =       120.6220 E_bond   =        10.7344 E_angle  =        21.1147 
E_dihed  =        28.0191 E_impro  =         0.3895 E_vdwl   =        63.6475 
E_coul   =         7.7671 E_long   =       -11.0504 Press    =        -8.6396
SHAKE stats (type/ave/delta/count) on step 1500
Bond:    2   1.09      8.09983e-08       45
Bond:    6   1.02      2.17043e-08       10
Bond:   10   1.36      0                  1
Bond:   12   0.98      0                  1
------------ Step           1500 ----- CPU =    0.1896689 (sec) -------------
TotEng   =       135.7474 KinEng   =        17.8410 Temp     =        61.4928 
PotEng   =       117.9064 E_bond   =        10.3396 E_angle  =        17.4850 
E_dihed  =        24.3619 E_impro  =         0.6219 E_vdwl   =        68.3935 
E_coul   =         7.7588 E_long   =       -11.0544 Press    =         3.3225
------------ Step           1600 ----- CPU =    0.2023781 (sec) -------------
TotEng   =       133.0311 KinEng   =        11.0550 Temp     =        38.1034 
PotEng   =       121.9760 E_bond   =        10.8589 E_angle  =        19.3113 
E_dihed  =        23.7807 E_impro  =         0.2932 E_vdwl   =        71.0307 
E_coul   =         7.7573 E_long   =       -11.0561 Press    =         0.6135
------------ Step           1700 ----- CPU =    0.2150104 (sec) -------------
TotEng   =       134.3073 KinEng   =        15.4649 Temp     =        53.3029 
PotEng   =       118.8424 E_bond   =        12.7981 E_angle  =        23.0325 
E_dihed  =        21.5575 E_impro  =         0.1740 E_vdwl   =        64.5647 
E_coul   =         7.7652 E_long   =       -11.0496 Press    =       -20.4420
------------ Step           1800 ----- CPU =    0.2277465 (sec) -------------
TotEng   =       136.0622 KinEng   =        16.0978 Temp     =        55.4843 
PotEng   =       119.9644 E_bond   =         9.4219 E_angle  =        21.7635 
E_dihed  =        23.3683 E_impro  =         0.6971 E_vdwl   =        68.0023 
E_coul   =         7.7602 E_long   =       -11.0489 Press    =         9.5575
------------ Step           1900 ----- CPU =      0.24044 (sec) -------------
TotEng   =       137.1580 KinEng   =        15.9275 Temp     =        54.8974 
PotEng   =       121.2305 E_bond   =        12.0313 E_angle  =        22.5570 
E_dihed  =        24.3768 E_impro  =         0.9215 E_vdwl   =        64.6431 
E_coul   =         7.7473 E_long   =       -11.0466 Press    =       -13.5283
SHAKE stats (type/ave/delta/count) on step 2000
Bond:    2   1.09      7.39548e-09       60
Bond:    6   1.02      8.27792e-10       10
Bond:   10   1.36      0                  1
Bond:   12   0.98      0                  1
------------ Step           2000 ----- CPU =    0.2533681 (sec) -------------
TotEng   =       138.3615 KinEng   =        19.1117 Temp     =        65.8723 
PotEng   =       119.2498 E_bond   =        12.0377 E_angle  =        27.0317 
E_dihed  =        18.1145 E_impro  =         0.3312 E_vdwl   =        65.0715 
E_coul   =         7.7135 E_long   =       -11.0503 Press    =       -10.6796
------------ Step           2100 ----- CPU =    0.2659189 (sec) -------------
TotEng   =       138.1303 KinEng   =        18.0654 Temp     =        62.2661 
PotEng   =       120.0649 E_bond   =         9.6395 E_angle  =        19.7152 
E_dihed  =        25.0745 E_impro  =         0.5046 E_vdwl   =        68.4616 
E_coul   =         7.7265 E_long   =       -11.0570 Press    =         3.2365
------------ Step           2200 ----- CPU =    0.2784808 (sec) -------------
TotEng   =       140.5268 KinEng   =        14.8219 Temp     =        51.0868 
PotEng   =       125.7049 E_bond   =         9.0159 E_angle  =        19.0585 
E_dihed  =        29.1268 E_impro  =         0.3889 E_vdwl   =        71.5131 
E_coul   =         7.6599 E_long   =       -11.0582 Press    =        18.4779
------------ Step           2300 ----- CPU =    0.2910811 (sec) -------------
TotEng   =       144.9000 KinEng   =        17.3631 Temp     =        59.8454 
PotEng   =       127.5369 E_bond   =        11.7189 E_angle  =        22.4080 
E_dihed  =        32.9082 E_impro  =         0.3210 E_vdwl   =        63.4603 
E_coul   =         7.7723 E_long   =       -11.0517 Press    =        -7.3412
------------ Step           2400 ----- CPU =    0.3034886 (sec) -------------
TotEng   =       147.6934 KinEng   =        24.3400 Temp     =        83.8927 
PotEng   =       123.3534 E_bond   =         8.1445 E_angle  =        21.5005 
E_dihed  =        24.7107 E_impro  =         0.4441 E_vdwl   =        71.8745 
E_coul   =         7.7224 E_long   =       -11.0432 Press    =        27.7438
SHAKE stats (type/ave/delta/count) on step 2500
Bond:    2   1.09      1.09827e-08       60
Bond:    6   1.02      2.15275e-09       10
Bond:   10   1.36      0                  1
Bond:   12   0.98      0                  1
------------ Step           2500 ----- CPU =    0.3160722 (sec) -------------
TotEng   =       147.6965 KinEng   =        22.9292 Temp     =        79.0301 
PotEng   =       124.7673 E_bond   =        15.5939 E_angle  =        29.8412 
E_dihed  =        20.2865 E_impro  =         0.3473 E_vdwl   =        61.9654 
E_coul   =         7.7765 E_long   =       -11.0435 Press    =       -38.2171
------------ Step           2600 ----- CPU =    0.3294478 (sec) -------------
TotEng   =       146.8311 KinEng   =        21.5481 Temp     =        74.2698 
PotEng   =       125.2830 E_bond   =         9.9202 E_angle  =        26.3598 
E_dihed  =        24.5375 E_impro  =         0.2344 E_vdwl   =        67.4977 
E_coul   =         7.7781 E_long   =       -11.0447 Press    =         4.1374
------------ Step           2700 ----- CPU =    0.3417134 (sec) -------------
TotEng   =       148.1688 KinEng   =        18.5773 Temp     =        64.0304 
PotEng   =       129.5915 E_bond   =        12.3172 E_angle  =        29.6094 
E_dihed  =        22.7258 E_impro  =         1.1393 E_vdwl   =        67.1127 
E_coul   =         7.7273 E_long   =       -11.0402 Press    =        -7.1897
------------ Step           2800 ----- CPU =    0.3540022 (sec) -------------
TotEng   =       152.8052 KinEng   =        23.7933 Temp     =        82.0086 
PotEng   =       129.0118 E_bond   =         9.7291 E_angle  =        22.4437 
E_dihed  =        29.1585 E_impro  =         0.3384 E_vdwl   =        70.5662 
E_coul   =         7.8181 E_long   =       -11.0423 Press    =        12.0821
------------ Step           2900 ----- CPU =    0.3663657 (sec) -------------
TotEng   =       154.6456 KinEng   =        27.8312 Temp     =        95.9258 
PotEng   =       126.8144 E_bond   =        14.2876 E_angle  =        25.5170 
E_dihed  =        20.6372 E_impro  =         0.4979 E_vdwl   =        69.1361 
E_coul   =         7.7789 E_long   =       -11.0404 Press    =       -13.9186
SHAKE stats (type/ave/delta/count) on step 3000
Bond:    2   1.09      2.09422e-08       60
Bond:    6   1.02      5.21584e-09       10
Bond:   10   1.36      0                  1
Bond:   12   0.98      0                  1
------------ Step           3000 ----- CPU =    0.3790909 (sec) -------------
TotEng   =       154.0480 KinEng   =        28.5105 Temp     =        98.2672 
PotEng   =       125.5375 E_bond   =        10.4555 E_angle  =        24.3934 
E_dihed  =        24.7456 E_impro  =         0.8258 E_vdwl   =        68.3601 
E_coul   =         7.8028 E_long   =       -11.0457 Press    =         5.3091
------------ Step           3100 ----- CPU =    0.3913376 (sec) -------------
TotEng   =       151.6491 KinEng   =        29.0127 Temp     =        99.9981 
PotEng   =       122.6364 E_bond   =        11.1576 E_angle  =        20.0318 
E_dihed  =        26.4040 E_impro  =         0.4286 E_vdwl   =        67.8529 
E_coul   =         7.8076 E_long   =       -11.0460 Press    =         0.1806
------------ Step           3200 ----- CPU =    0.4038958 (sec) -------------
TotEng   =       150.2703 KinEng   =        23.9075 Temp     =        82.4021 
PotEng   =       126.3628 E_bond   =        12.3036 E_angle  =        25.8843 
E_dihed  =        29.3710 E_impro  =         0.5117 E_vdwl   =        61.5447 
E_coul   =         7.7910 E_long   =       -11.0435 Press    =       -17.5533
------------ Step           3300 ----- CPU =    0.4165934 (sec) -------------
TotEng   =       156.5491 KinEng   =        26.5653 Temp     =        91.5626 
PotEng   =       129.9839 E_bond   =         8.1303 E_angle  =        25.5780 
E_dihed  =        26.6252 E_impro  =         0.9233 E_vdwl   =        72.0133 
E_coul   =         7.7596 E_long   =       -11.0459 Press    =        32.5931
------------ Step           3400 ----- CPU =    0.4295502 (sec) -------------
TotEng   =       161.0901 KinEng   =        28.4724 Temp     =        98.1360 
PotEng   =       132.6177 E_bond   =        13.8932 E_angle  =        23.7327 
E_dihed  =        34.5518 E_impro  =         1.3468 E_vdwl   =        62.2782 
E_coul   =         7.8608 E_long   =       -11.0458 Press    =       -21.3532
SHAKE stats (type/ave/delta/count) on step 3500
Bond:    2   1.09      1.4531e-07        60
Bond:    6   1.02      1.59564e-08       10
Bond:   10   1.36      0                  1
Bond:   12   0.98      0                  1
------------ Step           3500 ----- CPU =    0.4429032 (sec) -------------
TotEng   =       166.2115 KinEng   =        28.8203 Temp     =        99.3350 
PotEng   =       137.3912 E_bond   =        12.0447 E_angle  =        24.9869 
E_dihed  =        33.8239 E_impro  =         1.2525 E_vdwl   =        68.5799 
E_coul   =         7.7377 E_long   =       -11.0344 Press    =         2.5334
------------ Step           3600 ----- CPU =    0.4561018 (sec) -------------
TotEng   =       171.2303 KinEng   =        27.4631 Temp     =        94.6573 
PotEng   =       143.7672 E_bond   =        13.7771 E_angle  =        31.9024 
E_dihed  =        28.8829 E_impro  =         1.3425 E_vdwl   =        71.0434 
E_coul   =         7.8465 E_long   =       -11.0274 Press    =        -3.8148
------------ Step           3700 ----- CPU =     0.469404 (sec) -------------
TotEng   =       174.2492 KinEng   =        33.4356 Temp     =       115.2428 
PotEng   =       140.8136 E_bond   =        11.0580 E_angle  =        23.6131 
E_dihed  =        34.5837 E_impro  =         1.4498 E_vdwl   =        73.3437 
E_coul   =         7.7915 E_long   =       -11.0263 Press    =        27.3489
------------ Step           3800 ----- CPU =    0.4825717 (sec) -------------
TotEng   =       174.2915 KinEng   =        27.9530 Temp     =        96.3457 
PotEng   =       146.3385 E_bond   =        12.0408 E_angle  =        34.9985 
E_dihed  =        33.1323 E_impro  =         1.3823 E_vdwl   =        68.0213 
E_coul   =         7.8038 E_long   =       -11.0405 Press    =        -1.2616
------------ Step           3900 ----- CPU =      0.49578 (sec) -------------
TotEng   =       177.8721 KinEng   =        32.6307 Temp     =       112.4684 
PotEng   =       145.2414 E_bond   =        12.1368 E_angle  =        35.0658 
E_dihed  =        28.7812 E_impro  =         1.1464 E_vdwl   =        71.3113 
E_coul   =         7.8452 E_long   =       -11.0453 Press    =         6.1942
SHAKE stats (type/ave/delta/count) on step 4000
Bond:    2   1.09      3.69298e-07       60
Bond:    6   1.02      4.27642e-08       10
Bond:   10   1.36      0                  1
Bond:   12   0.98      0                  1
------------ Step           4000 ----- CPU =    0.5091336 (sec) -------------
TotEng   =       183.3711 KinEng   =        41.5923 Temp     =       143.3563 
PotEng   =       141.7788 E_bond   =        12.6784 E_angle  =        38.9497 
E_dihed  =        26.9382 E_impro  =         1.1763 E_vdwl   =        65.2834 
E_coul   =         7.7991 E_long   =       -11.0462 Press    =        -3.6375
------------ Step           4100 ----- CPU =    0.5223748 (sec) -------------
TotEng   =       178.6584 KinEng   =        37.5267 Temp     =       129.3433 
PotEng   =       141.1318 E_bond   =        14.6804 E_angle  =        32.0583 
E_dihed  =        33.7573 E_impro  =         1.0646 E_vdwl   =        62.7823 
E_coul   =         7.8409 E_long   =       -11.0520 Press    =       -15.8440
------------ Step           4200 ----- CPU =    0.5418444 (sec) -------------
TotEng   =       174.1676 KinEng   =        36.6190 Temp     =       126.2149 
PotEng   =       137.5486 E_bond   =         8.5379 E_angle  =        32.1920 
E_dihed  =        25.7285 E_impro  =         0.3836 E_vdwl   =        73.9383 
E_coul   =         7.8207 E_long   =       -11.0524 Press    =        39.2515
------------ Step           4300 ----- CPU =    0.5592256 (sec) -------------
TotEng   =       177.9505 KinEng   =        31.0239 Temp     =       106.9304 
PotEng   =       146.9265 E_bond   =        14.9876 E_angle  =        35.0223 
E_dihed  =        28.8972 E_impro  =         0.7655 E_vdwl   =        70.5429 
E_coul   =         7.7591 E_long   =       -11.0482 Press    =         1.7996
------------ Step           4400 ----- CPU =    0.5796738 (sec) -------------
TotEng   =       183.7264 KinEng   =        35.6160 Temp     =       122.7578 
PotEng   =       148.1104 E_bond   =        15.3493 E_angle  =        37.6960 
E_dihed  =        28.6881 E_impro  =         1.0189 E_vdwl   =        68.5174 
E_coul   =         7.8847 E_long   =       -11.0440 Press    =        -2.9241
SHAKE stats (type/ave/delta/count) on step 4500
Bond:    2   1.09      2.22583e-07       60
Bond:    6   1.02      6.85094e-08       10
Bond:   10   1.36      0                  1
Bond:   12   0.98      0                  1
------------ Step           4500 ----- CPU =    0.5954265 (sec) -------------
TotEng   =       183.1366 KinEng   =        44.0819 Temp     =       151.9374 
PotEng   =       139.0547 E_bond   =        10.7765 E_angle  =        33.2934 
E_dihed  =        25.0936 E_impro  =         1.4573 E_vdwl   =        71.7048 
E_coul   =         7.7722 E_long   =       -11.0431 Press    =        20.4964
------------ Step           4600 ----- CPU =    0.6103726 (sec) -------------
TotEng   =       180.7518 KinEng   =        35.5011 Temp     =       122.3617 
PotEng   =       145.2507 E_bond   =        16.4930 E_angle  =        32.8536 
E_dihed  =        29.4561 E_impro  =         1.4382 E_vdwl   =        68.2766 
E_coul   =         7.7737 E_long   =       -11.0405 Press    =       -22.2799
------------ Step           4700 ----- CPU =     0.627311 (sec) -------------
TotEng   =       186.0128 KinEng   =        38.5879 Temp     =       133.0012 
PotEng   =       147.4249 E_bond   =        19.5097 E_angle  =        42.3233 
E_dihed  =        22.2799 E_impro  =         0.8926 E_vdwl   =        65.6743 
E_coul   =         7.7815 E_long   =       -11.0364 Press    =       -36.1759
------------ Step           4800 ----- CPU =    0.6405389 (sec) -------------
TotEng   =       193.5150 KinEng   =        41.6158 Temp     =       143.4373 
PotEng   =       151.8993 E_bond   =        18.8937 E_angle  =        29.6581 
E_dihed  =        25.2605 E_impro  =         0.9637 E_vdwl   =        80.3182 
E_coul   =         7.8478 E_long   =       -11.0427 Press    =         0.5224
------------ Step           4900 ----- CPU =    0.6533638 (sec) -------------
TotEng   =       192.3129 KinEng   =        39.7707 Temp     =       137.0780 
PotEng   =       152.5421 E_bond   =        14.4678 E_angle  =        43.0548 
E_dihed  =        28.8804 E_impro  =         1.8395 E_vdwl   =        67.5610 
E_coul   =         7.7808 E_long   =       -11.0422 Press    =       -17.8109
SHAKE stats (type/ave/delta/count) on step 5000
Bond:    2   1.09      4.46908e-07       60
Bond:    6   1.02      9.23187e-08       10
Bond:   10   1.36      0                  1
Bond:   12   0.98      0                  1
------------ Step           5000 ----- CPU =    0.6662388 (sec) -------------
TotEng   =       189.7932 KinEng   =        44.7365 Temp     =       154.1934 
PotEng   =       145.0568 E_bond   =        15.0017 E_angle  =        32.0412 
E_dihed  =        26.3172 E_impro  =         1.5044 E_vdwl   =        73.4241 
E_coul   =         7.8127 E_long   =       -11.0444 Press    =        15.6859
------------ Step           5100 ----- CPU =    0.6795185 (sec) -------------
TotEng   =       189.9374 KinEng   =        41.0709 Temp     =       141.5594 
PotEng   =       148.8664 E_bond   =        14.7992 E_angle  =        37.3036 
E_dihed  =        28.2130 E_impro  =         0.7579 E_vdwl   =        71.0325 
E_coul   =         7.8142 E_long   =       -11.0540 Press    =        -7.5675
------------ Step           5200 ----- CPU =    0.6921054 (sec) -------------
TotEng   =       201.0765 KinEng   =        40.2170 Temp     =       138.6161 
PotEng   =       160.8595 E_bond   =        19.3087 E_angle  =        45.9990 
E_dihed  =        31.5031 E_impro  =         0.8950 E_vdwl   =        66.4675 
E_coul   =         7.7402 E_long   =       -11.0539 Press    =       -28.6011
------------ Step           5300 ----- CPU =     0.706349 (sec) -------------
TotEng   =       205.8278 KinEng   =        55.0197 Temp     =       189.6367 
PotEng   =       150.8081 E_bond   =        18.1070 E_angle  =        36.8673 
E_dihed  =        28.7208 E_impro  =         0.6577 E_vdwl   =        69.7236 
E_coul   =         7.7883 E_long   =       -11.0566 Press    =       -18.1743
------------ Step           5400 ----- CPU =    0.7191097 (sec) -------------
TotEng   =       200.6664 KinEng   =        50.3520 Temp     =       173.5484 
PotEng   =       150.3144 E_bond   =        16.3469 E_angle  =        36.0344 
E_dihed  =        26.6608 E_impro  =         1.2750 E_vdwl   =        73.2738 
E_coul   =         7.7748 E_long   =       -11.0513 Press    =       -13.1117
SHAKE stats (type/ave/delta/count) on step 5500
Bond:    2   1.09      9.03923e-08       60
Bond:    6   1.02      4.39185e-08       10
Bond:   10   1.36      0                  1
Bond:   12   0.98      0                  1
------------ Step           5500 ----- CPU =    0.7319066 (sec) -------------
TotEng   =       198.0928 KinEng   =        49.7529 Temp     =       171.4836 
PotEng   =       148.3399 E_bond   =        14.5620 E_angle  =        35.1704 
E_dihed  =        26.2664 E_impro  =         0.8429 E_vdwl   =        74.8118 
E_coul   =         7.7338 E_long   =       -11.0473 Press    =        11.7779
------------ Step           5600 ----- CPU =    0.7464084 (sec) -------------
TotEng   =       199.1197 KinEng   =        46.0918 Temp     =       158.8647 
PotEng   =       153.0280 E_bond   =        16.9984 E_angle  =        38.5801 
E_dihed  =        28.9587 E_impro  =         0.9544 E_vdwl   =        70.7501 
E_coul   =         7.8379 E_long   =       -11.0517 Press    =       -11.9838
------------ Step           5700 ----- CPU =    0.7597633 (sec) -------------
TotEng   =       203.7282 KinEng   =        43.0823 Temp     =       148.4920 
PotEng   =       160.6458 E_bond   =        12.0847 E_angle  =        47.3746 
E_dihed  =        30.1512 E_impro  =         1.4416 E_vdwl   =        72.8329 
E_coul   =         7.7912 E_long   =       -11.0304 Press    =        16.0280
------------ Step           5800 ----- CPU =    0.7750511 (sec) -------------
TotEng   =       211.8370 KinEng   =        54.9050 Temp     =       189.2413 
PotEng   =       156.9320 E_bond   =        22.2114 E_angle  =        43.2235 
E_dihed  =        24.5629 E_impro  =         0.7744 E_vdwl   =        69.4027 
E_coul   =         7.7852 E_long   =       -11.0280 Press    =       -32.9717
------------ Step           5900 ----- CPU =    0.7892332 (sec) -------------
TotEng   =       209.8185 KinEng   =        57.5757 Temp     =       198.4465 
PotEng   =       152.2428 E_bond   =        22.7727 E_angle  =        38.9381 
E_dihed  =        23.3626 E_impro  =         0.8610 E_vdwl   =        69.5627 
E_coul   =         7.7732 E_long   =       -11.0276 Press    =       -35.9966
SHAKE stats (type/ave/delta/count) on step 6000
Bond:    2   1.09      2.34516e-07       60
Bond:    6   1.02      7.82718e-08       10
Bond:   10   1.36      0                  1
Bond:   12   0.98      0                  1
------------ Step           6000 ----- CPU =    0.8023749 (sec) -------------
TotEng   =       202.3097 KinEng   =        47.0924 Temp     =       162.3137 
PotEng   =       155.2173 E_bond   =        18.8936 E_angle  =        34.3103 
E_dihed  =        24.9469 E_impro  =         0.8347 E_vdwl   =        79.3630 
E_coul   =         7.8913 E_long   =       -11.0225 Press    =         4.4491
------------ Step           6100 ----- CPU =    0.8152656 (sec) -------------
TotEng   =       202.4497 KinEng   =        47.8189 Temp     =       164.8175 
PotEng   =       154.6309 E_bond   =        17.5477 E_angle  =        38.8862 
E_dihed  =        28.5264 E_impro  =         1.1219 E_vdwl   =        71.8524 
E_coul   =         7.7306 E_long   =       -11.0345 Press    =       -17.9805
------------ Step           6200 ----- CPU =    0.8280024 (sec) -------------
TotEng   =       204.8604 KinEng   =        53.3259 Temp     =       183.7986 
PotEng   =       151.5345 E_bond   =        14.1045 E_angle  =        32.4786 
E_dihed  =        33.8235 E_impro  =         1.3766 E_vdwl   =        72.9129 
E_coul   =         7.8556 E_long   =       -11.0173 Press    =        13.2358
------------ Step           6300 ----- CPU =    0.8415883 (sec) -------------
TotEng   =       208.8024 KinEng   =        54.4211 Temp     =       187.5736 
PotEng   =       154.3812 E_bond   =        17.8516 E_angle  =        47.2866 
E_dihed  =        26.0905 E_impro  =         0.9345 E_vdwl   =        65.5262 
E_coul   =         7.7323 E_long   =       -11.0404 Press    =       -17.0552
------------ Step           6400 ----- CPU =    0.8547123 (sec) -------------
TotEng   =       211.5777 KinEng   =        50.0902 Temp     =       172.6463 
PotEng   =       161.4874 E_bond   =        16.5040 E_angle  =        53.8824 
E_dihed  =        26.7757 E_impro  =         0.8087 E_vdwl   =        66.7670 
E_coul   =         7.7896 E_long   =       -11.0398 Press    =        -9.9955
SHAKE stats (type/ave/delta/count) on step 6500
Bond:    2   1.09      9.93833e-07       45
Bond:    6   1.02      3.34415e-07       10
Bond:   10   1.36      0                  1
Bond:   12   0.98      0                  1
------------ Step           6500 ----- CPU =    0.8679941 (sec) -------------
TotEng   =       216.2762 KinEng   =        51.4448 Temp     =       177.3150 
PotEng   =       164.8314 E_bond   =        17.3412 E_angle  =        37.8609 
E_dihed  =        36.1729 E_impro  =         3.6993 E_vdwl   =        72.9480 
E_coul   =         7.8338 E_long   =       -11.0248 Press    =        17.8793
------------ Step           6600 ----- CPU =    0.8811451 (sec) -------------
TotEng   =       223.5137 KinEng   =        57.3314 Temp     =       197.6043 
PotEng   =       166.1824 E_bond   =        22.0958 E_angle  =        41.2477 
E_dihed  =        35.3705 E_impro  =         1.6731 E_vdwl   =        69.1052 
E_coul   =         7.7180 E_long   =       -11.0281 Press    =       -19.1913
------------ Step           6700 ----- CPU =    0.8942969 (sec) -------------
TotEng   =       229.3397 KinEng   =        48.8639 Temp     =       168.4193 
PotEng   =       180.4758 E_bond   =        18.3989 E_angle  =        47.9472 
E_dihed  =        37.9362 E_impro  =         3.1799 E_vdwl   =        76.2465 
E_coul   =         7.8077 E_long   =       -11.0406 Press    =       -10.1088
------------ Step           6800 ----- CPU =    0.9071899 (sec) -------------
TotEng   =       236.2316 KinEng   =        59.3490 Temp     =       204.5586 
PotEng   =       176.8825 E_bond   =        22.0744 E_angle  =        46.3753 
E_dihed  =        32.0087 E_impro  =         4.2527 E_vdwl   =        75.4130 
E_coul   =         7.7959 E_long   =       -11.0374 Press    =        -6.5115
------------ Step           6900 ----- CPU =    0.9204859 (sec) -------------
TotEng   =       234.1103 KinEng   =        60.7440 Temp     =       209.3666 
PotEng   =       173.3663 E_bond   =        15.7345 E_angle  =        47.0928 
E_dihed  =        38.0499 E_impro  =         2.7018 E_vdwl   =        72.9579 
E_coul   =         7.8679 E_long   =       -11.0386 Press    =         6.6587
SHAKE stats (type/ave/delta/count) on step 7000
Bond:    2   1.09      1.31855e-06       60
Bond:    6   1.02      2.94356e-07       10
Bond:   10   1.36      0                  1
Bond:   12   0.98      0                  1
------------ Step           7000 ----- CPU =    0.9340946 (sec) -------------
TotEng   =       224.5589 KinEng   =        62.8064 Temp     =       216.4753 
PotEng   =       161.7524 E_bond   =        19.7173 E_angle  =        44.2738 
E_dihed  =        26.9205 E_impro  =         1.5791 E_vdwl   =        72.5434 
E_coul   =         7.7585 E_long   =       -11.0401 Press    =       -10.2633
------------ Step           7100 ----- CPU =    0.9472504 (sec) -------------
TotEng   =       226.9232 KinEng   =        54.6727 Temp     =       188.4408 
PotEng   =       172.2504 E_bond   =        14.4702 E_angle  =        52.2898 
E_dihed  =        27.5053 E_impro  =         1.9869 E_vdwl   =        79.2772 
E_coul   =         7.7622 E_long   =       -11.0411 Press    =        38.2066
------------ Step           7200 ----- CPU =    0.9604064 (sec) -------------
TotEng   =       235.1316 KinEng   =        63.0047 Temp     =       217.1587 
PotEng   =       172.1268 E_bond   =        23.0919 E_angle  =        46.4568 
E_dihed  =        30.8563 E_impro  =         1.5916 E_vdwl   =        73.3632 
E_coul   =         7.7745 E_long   =       -11.0074 Press    =       -10.9473
------------ Step           7300 ----- CPU =    0.9738644 (sec) -------------
TotEng   =       238.4254 KinEng   =        59.6133 Temp     =       205.4695 
PotEng   =       178.8121 E_bond   =        18.7897 E_angle  =        47.8753 
E_dihed  =        31.2579 E_impro  =         2.6302 E_vdwl   =        81.5300 
E_coul   =         7.7430 E_long   =       -11.0140 Press    =        25.4686
------------ Step           7400 ----- CPU =    0.9871781 (sec) -------------
TotEng   =       239.0381 KinEng   =        70.1374 Temp     =       241.7428 
PotEng   =       168.9007 E_bond   =        16.2654 E_angle  =        58.8788 
E_dihed  =        23.7804 E_impro  =         1.7023 E_vdwl   =        71.3831 
E_coul   =         7.9056 E_long   =       -11.0148 Press    =         2.0955
SHAKE stats (type/ave/delta/count) on step 7500
Bond:    2   1.09      1.93947e-06       60
Bond:    6   1.02      5.30895e-07       10
Bond:   10   1.36      0                  1
Bond:   12   0.98      0                  1
------------ Step           7500 ----- CPU =      1.00044 (sec) -------------
TotEng   =       230.7001 KinEng   =        56.5190 Temp     =       194.8042 
PotEng   =       174.1812 E_bond   =        18.7664 E_angle  =        59.5670 
E_dihed  =        30.9900 E_impro  =         1.2576 E_vdwl   =        66.8707 
E_coul   =         7.7418 E_long   =       -11.0124 Press    =       -19.2135
------------ Step           7600 ----- CPU =     1.013831 (sec) -------------
TotEng   =       224.5937 KinEng   =        56.1055 Temp     =       193.3790 
PotEng   =       168.4883 E_bond   =        14.2094 E_angle  =        47.4221 
E_dihed  =        35.5754 E_impro  =         1.4745 E_vdwl   =        72.8807 
E_coul   =         7.9487 E_long   =       -11.0225 Press    =        29.2776
------------ Step           7700 ----- CPU =     1.027047 (sec) -------------
TotEng   =       234.5053 KinEng   =        65.0202 Temp     =       224.1054 
PotEng   =       169.4851 E_bond   =        24.8323 E_angle  =        51.0985 
E_dihed  =        27.8741 E_impro  =         1.3646 E_vdwl   =        67.5378 
E_coul   =         7.7984 E_long   =       -11.0207 Press    =       -30.0519
------------ Step           7800 ----- CPU =     1.039967 (sec) -------------
TotEng   =       243.9093 KinEng   =        63.1458 Temp     =       217.6450 
PotEng   =       180.7634 E_bond   =        24.3372 E_angle  =        55.6966 
E_dihed  =        33.8572 E_impro  =         1.6456 E_vdwl   =        68.4583 
E_coul   =         7.7953 E_long   =       -11.0268 Press    =       -27.9673
------------ Step           7900 ----- CPU =     1.052951 (sec) -------------
TotEng   =       247.7204 KinEng   =        70.8910 Temp     =       244.3404 
PotEng   =       176.8294 E_bond   =        26.8069 E_angle  =        45.3144 
E_dihed  =        33.0790 E_impro  =         2.5695 E_vdwl   =        72.2885 
E_coul   =         7.8079 E_long   =       -11.0369 Press    =       -24.8388
SHAKE stats (type/ave/delta/count) on step 8000
Bond:    2   1.09      4.3875e-07        60
Bond:    6   1.02      1.62624e-07       10
Bond:   10   1.36      0                  1
Bond:   12   0.98      0                  1
------------ Step           8000 ----- CPU =     1.066313 (sec) -------------
TotEng   =       249.7247 KinEng   =        75.6743 Temp     =       260.8268 
PotEng   =       174.0504 E_bond   =        20.1712 E_angle  =        49.3779 
E_dihed  =        36.7947 E_impro  =         1.9677 E_vdwl   =        68.8755 
E_coul   =         7.8951 E_long   =       -11.0317 Press    =        -1.8793
------------ Step           8100 ----- CPU =      1.07934 (sec) -------------
TotEng   =       243.9906 KinEng   =        58.6494 Temp     =       202.1472 
PotEng   =       185.3412 E_bond   =        16.1600 E_angle  =        48.0770 
E_dihed  =        36.2025 E_impro  =         2.3776 E_vdwl   =        85.8063 
E_coul   =         7.7520 E_long   =       -11.0341 Press    =        61.2724
------------ Step           8200 ----- CPU =     1.092406 (sec) -------------
TotEng   =       238.7132 KinEng   =        76.3406 Temp     =       263.1234 
PotEng   =       162.3726 E_bond   =        21.8201 E_angle  =        44.6495 
E_dihed  =        28.1914 E_impro  =         1.5315 E_vdwl   =        69.4733 
E_coul   =         7.7184 E_long   =       -11.0115 Press    =       -23.6009
------------ Step           8300 ----- CPU =     1.105297 (sec) -------------
TotEng   =       235.1248 KinEng   =        67.5766 Temp     =       232.9166 
PotEng   =       167.5482 E_bond   =        19.9230 E_angle  =        49.3857 
E_dihed  =        28.1955 E_impro  =         2.6503 E_vdwl   =        70.6179 
E_coul   =         7.7898 E_long   =       -11.0140 Press    =        -2.5560
------------ Step           8400 ----- CPU =     1.118142 (sec) -------------
TotEng   =       242.2219 KinEng   =        60.2589 Temp     =       207.6947 
PotEng   =       181.9630 E_bond   =        20.5463 E_angle  =        62.0501 
E_dihed  =        32.7465 E_impro  =         2.4343 E_vdwl   =        67.4438 
E_coul   =         7.7560 E_long   =       -11.0140 Press    =         4.2163
SHAKE stats (type/ave/delta/count) on step 8500
Bond:    2   1.09      7.93786e-07       60
Bond:    6   1.02      8.6298e-07        10
Bond:   10   1.36      0                  1
Bond:   12   0.98      0                  1
------------ Step           8500 ----- CPU =     1.131032 (sec) -------------
TotEng   =       255.4044 KinEng   =        76.0186 Temp     =       262.0137 
PotEng   =       179.3858 E_bond   =        18.0829 E_angle  =        54.9099 
E_dihed  =        30.4428 E_impro  =         1.2689 E_vdwl   =        77.8724 
E_coul   =         7.8170 E_long   =       -11.0081 Press    =        23.8234
------------ Step           8600 ----- CPU =     1.143682 (sec) -------------
TotEng   =       257.5065 KinEng   =        75.8168 Temp     =       261.3182 
PotEng   =       181.6897 E_bond   =        18.8443 E_angle  =        63.7364 
E_dihed  =        30.9841 E_impro  =         3.9407 E_vdwl   =        67.4673 
E_coul   =         7.7388 E_long   =       -11.0219 Press    =       -10.7593
------------ Step           8700 ----- CPU =     1.156509 (sec) -------------
TotEng   =       255.5733 KinEng   =        78.8568 Temp     =       271.7960 
PotEng   =       176.7166 E_bond   =        19.2333 E_angle  =        52.1834 
E_dihed  =        33.5387 E_impro  =         1.8944 E_vdwl   =        73.0707 
E_coul   =         7.8437 E_long   =       -11.0476 Press    =         2.9948
------------ Step           8800 ----- CPU =     1.169377 (sec) -------------
TotEng   =       268.0300 KinEng   =        74.3690 Temp     =       256.3279 
PotEng   =       193.6611 E_bond   =        25.0975 E_angle  =        67.3150 
E_dihed  =        34.1351 E_impro  =         2.1037 E_vdwl   =        68.2121 
E_coul   =         7.8373 E_long   =       -11.0397 Press    =        -2.1040
------------ Step           8900 ----- CPU =     1.182397 (sec) -------------
TotEng   =       278.7267 KinEng   =        84.9745 Temp     =       292.8821 
PotEng   =       193.7521 E_bond   =        24.4096 E_angle  =        64.0941 
E_dihed  =        32.1004 E_impro  =         2.1287 E_vdwl   =        74.1890 
E_coul   =         7.8712 E_long   =       -11.0407 Press    =       -30.6479
SHAKE stats (type/ave/delta/count) on step 9000
Bond:    2   1.09      1.35467e-06       60
Bond:    6   1.02      4.08714e-07       10
Bond:   10   1.36      0                  1
Bond:   12   0.98      0                  1
------------ Step           9000 ----- CPU =     1.195874 (sec) -------------
TotEng   =       275.4463 KinEng   =        78.8477 Temp     =       271.7649 
PotEng   =       196.5985 E_bond   =        23.6753 E_angle  =        65.9226 
E_dihed  =        36.9646 E_impro  =         2.7150 E_vdwl   =        70.4934 
E_coul   =         7.8676 E_long   =       -11.0401 Press    =         3.9190
------------ Step           9100 ----- CPU =     1.208888 (sec) -------------
TotEng   =       265.4280 KinEng   =        77.6227 Temp     =       267.5425 
PotEng   =       187.8053 E_bond   =        28.6659 E_angle  =        58.4772 
E_dihed  =        29.9657 E_impro  =         1.8414 E_vdwl   =        72.1906 
E_coul   =         7.7008 E_long   =       -11.0364 Press    =       -23.6061
------------ Step           9200 ----- CPU =     1.221911 (sec) -------------
TotEng   =       254.5534 KinEng   =        73.3884 Temp     =       252.9481 
PotEng   =       181.1651 E_bond   =        18.1143 E_angle  =        68.1723 
E_dihed  =        26.5253 E_impro  =         3.0914 E_vdwl   =        68.6432 
E_coul   =         7.6751 E_long   =       -11.0565 Press    =        25.1849
------------ Step           9300 ----- CPU =     1.235083 (sec) -------------
TotEng   =       253.4413 KinEng   =        71.5023 Temp     =       246.4473 
PotEng   =       181.9390 E_bond   =        26.8718 E_angle  =        53.8473 
E_dihed  =        36.0454 E_impro  =         2.1862 E_vdwl   =        66.2132 
E_coul   =         7.8179 E_long   =       -11.0428 Press    =        -6.4485
------------ Step           9400 ----- CPU =     1.248136 (sec) -------------
TotEng   =       259.5607 KinEng   =        84.3672 Temp     =       290.7888 
PotEng   =       175.1936 E_bond   =        24.9282 E_angle  =        54.8291 
E_dihed  =        34.6269 E_impro  =         2.1744 E_vdwl   =        61.7114 
E_coul   =         7.9082 E_long   =       -10.9847 Press    =       -33.7212
SHAKE stats (type/ave/delta/count) on step 9500
Bond:    2   1.09      2.19825e-06       60
Bond:    6   1.02      2.16851e-06       10
Bond:   10   1.36      0                  1
Bond:   12   0.98      0                  1
------------ Step           9500 ----- CPU =     1.261328 (sec) -------------
TotEng   =       267.5641 KinEng   =        77.8164 Temp     =       268.2100 
PotEng   =       189.7477 E_bond   =        24.5778 E_angle  =        63.1190 
E_dihed  =        34.3842 E_impro  =         2.9800 E_vdwl   =        67.7991 
E_coul   =         7.9079 E_long   =       -11.0204 Press    =       -25.9421
------------ Step           9600 ----- CPU =     1.274394 (sec) -------------
TotEng   =       276.2254 KinEng   =        90.9810 Temp     =       313.5847 
PotEng   =       185.2444 E_bond   =        28.4445 E_angle  =        54.5586 
E_dihed  =        34.9307 E_impro  =         1.9177 E_vdwl   =        68.7313 
E_coul   =         7.6953 E_long   =       -11.0338 Press    =       -28.1579
------------ Step           9700 ----- CPU =     1.287604 (sec) -------------
TotEng   =       277.4914 KinEng   =        87.2617 Temp     =       300.7652 
PotEng   =       190.2297 E_bond   =        21.2544 E_angle  =        60.5228 
E_dihed  =        35.7695 E_impro  =         3.2820 E_vdwl   =        72.6202 
E_coul   =         7.8274 E_long   =       -11.0466 Press    =        29.0179
------------ Step           9800 ----- CPU =     1.300908 (sec) -------------
TotEng   =       274.8705 KinEng   =        80.4255 Temp     =       277.2029 
PotEng   =       194.4450 E_bond   =        31.9152 E_angle  =        70.4095 
E_dihed  =        26.4297 E_impro  =         4.4391 E_vdwl   =        64.4481 
E_coul   =         7.8384 E_long   =       -11.0350 Press    =       -32.9652
------------ Step           9900 ----- CPU =     1.314109 (sec) -------------
TotEng   =       268.3287 KinEng   =        77.1911 Temp     =       266.0548 
PotEng   =       191.1377 E_bond   =        20.6513 E_angle  =        66.2551 
E_dihed  =        29.2295 E_impro  =         1.9546 E_vdwl   =        76.3022 
E_coul   =         7.7480 E_long   =       -11.0030 Press    =        47.8926
SHAKE stats (type/ave/delta/count) on step 10000
Bond:    2   1.09      2.41225e-06       60
Bond:    6   1.02      2.32499e-06       10
Bond:   10   1.36      0                  1
Bond:   12   0.98      0                  1
------------ Step          10000 ----- CPU =     1.327688 (sec) -------------
TotEng   =       269.7875 KinEng   =        75.0836 Temp     =       258.7910 
PotEng   =       194.7039 E_bond   =        18.5628 E_angle  =        76.6383 
E_dihed  =        33.7254 E_impro  =         4.6697 E_vdwl   =        64.4171 
E_coul   =         7.7251 E_long   =       -11.0344 Press    =         3.4262
Loop time of 1.32777 on 64 procs for 10000 steps with 122 atoms

Performance: 650.714 ns/day, 0.037 hours/ns, 7531.413 timesteps/s
99.4% CPU use with 64 MPI tasks x 1 OpenMP threads

MPI task timing breakdown:
Section |  min time  |  avg time  |  max time  |%varavg| %total
---------------------------------------------------------------
Pair    | 0.0029193  | 0.0089857  | 0.11315    |  19.4 |  0.68
Bond    | 0.00072538 | 0.0057796  | 0.069521   |  19.4 |  0.44
Kspace  | 0.80861    | 0.97889    | 1.0329     |   4.3 | 73.72
Neigh   | 0.015159   | 0.016096   | 0.017377   |   0.5 |  1.21
Comm    | 0.0052747  | 0.081282   | 0.17243    |  19.6 |  6.12
Output  | 0.0087185  | 0.0097704  | 0.010641   |   0.4 |  0.74
Modify  | 0.12988    | 0.20346    | 0.24201    |   7.9 | 15.32
Other   |            | 0.02351    |            |       |  1.77

Nlocal:        1.90625 ave          32 max           0 min
Histogram: 56 3 1 1 0 0 0 1 0 2
Nghost:        25.2344 ave         101 max           0 min
Histogram: 26 12 0 8 6 1 7 1 2 1
Neighs:        56.7344 ave        1067 max           0 min
Histogram: 56 1 2 2 2 0 0 0 0 1

Total # of neighbors = 3631
Ave neighs/atom = 29.762295
Ave special neighs/atom = 5.7540984
Neighbor list builds = 187
Dangerous builds = 0
unfix                4
undump               1

print                .
.
print                ================================================
================================================
print                "NPT dynamics with an isotropic pressure of 1atm."
NPT dynamics with an isotropic pressure of 1atm.
print                ================================================
================================================
print                .
.

fix                  2 all nvt temp ${rtemp} ${rtemp} 100.0
fix                  2 all nvt temp 298 ${rtemp} 100.0
fix                  2 all nvt temp 298 298 100.0
thermo               100
thermo_style         multi
restart              50000 ${sname}.npt.*.restart
restart              50000 oleic_xligand.test.npt.*.restart
dump                 1 all custom 100 ${sname}.${rtemp}K.${press}bar.npt.lammpstrj id type xu yu zu vx vy vz
dump                 1 all custom 100 oleic_xligand.test.${rtemp}K.${press}bar.npt.lammpstrj id type xu yu zu vx vy vz
dump                 1 all custom 100 oleic_xligand.test.298K.${press}bar.npt.lammpstrj id type xu yu zu vx vy vz
dump                 1 all custom 100 oleic_xligand.test.298K.1bar.npt.lammpstrj id type xu yu zu vx vy vz
run                  500000 # run for 15 ns
PPPM initialization ...
  using 12-bit tables for long-range coulomb (src/kspace.cpp:342)
  G vector (1/distance) = 0.17549664
  grid = 12 12 12
  stencil order = 5
  estimated absolute RMS force accuracy = 0.00090018282
  estimated relative force accuracy = 2.7108738e-06
  using double precision FFTW3
  3d grid and FFT values/proc = 512 48
Generated 28 of 28 mixed pair_coeff terms from geometric mixing rule
SHAKE stats (type/ave/delta/count) on step 10000
Bond:    2   1.09      2.41225e-06       60
Bond:    6   1.02      2.32499e-06       10
Bond:   10   1.36      0                  1
Bond:   12   0.98      0                  1
Per MPI rank memory allocation (min/avg/max) = 15.71 | 15.96 | 17.49 Mbytes
------------ Step          10000 ----- CPU =            0 (sec) -------------
TotEng   =       269.7875 KinEng   =        75.0836 Temp     =       258.7910 
PotEng   =       194.7039 E_bond   =        18.5628 E_angle  =        76.6383 
E_dihed  =        33.7254 E_impro  =         4.6697 E_vdwl   =        64.4171 
E_coul   =         7.7251 E_long   =       -11.0344 Press    =         3.4325
------------ Step          10100 ----- CPU =   0.01331546 (sec) -------------
TotEng   =       277.7693 KinEng   =        92.9199 Temp     =       320.2675 
PotEng   =       184.8494 E_bond   =        27.1736 E_angle  =        61.9438 
E_dihed  =        30.7175 E_impro  =         2.3999 E_vdwl   =        65.8532 
E_coul   =         7.8094 E_long   =       -11.0480 Press    =       -16.4530
------------ Step          10200 ----- CPU =   0.02682098 (sec) -------------
TotEng   =       290.8761 KinEng   =        99.2551 Temp     =       342.1031 
PotEng   =       191.6210 E_bond   =        21.6626 E_angle  =        67.4583 
E_dihed  =        31.7110 E_impro  =         2.1335 E_vdwl   =        71.9020 
E_coul   =         7.7890 E_long   =       -11.0355 Press    =        32.1808
------------ Step          10300 ----- CPU =   0.04029392 (sec) -------------
TotEng   =       290.3760 KinEng   =        79.7234 Temp     =       274.7829 
PotEng   =       210.6526 E_bond   =        36.0863 E_angle  =        67.4014 
E_dihed  =        38.5209 E_impro  =         5.3261 E_vdwl   =        66.5765 
E_coul   =         7.7783 E_long   =       -11.0368 Press    =       -65.3705
------------ Step          10400 ----- CPU =    0.0536251 (sec) -------------
TotEng   =       264.4425 KinEng   =        72.0406 Temp     =       248.3028 
PotEng   =       192.4018 E_bond   =        27.8311 E_angle  =        64.3959 
E_dihed  =        28.6139 E_impro  =         3.3940 E_vdwl   =        71.5688 
E_coul   =         7.6289 E_long   =       -11.0307 Press    =       -19.1963
SHAKE stats (type/ave/delta/count) on step 10500
Bond:    2   1.09      3.14515e-06       60
Bond:    6   1.02      2.61283e-06       10
Bond:   10   1.36      0                  1
Bond:   12   0.98      0                  1
------------ Step          10500 ----- CPU =   0.06710144 (sec) -------------
TotEng   =       265.9903 KinEng   =        76.2924 Temp     =       262.9574 
PotEng   =       189.6979 E_bond   =        27.7544 E_angle  =        51.5791 
E_dihed  =        31.2553 E_impro  =         2.6686 E_vdwl   =        79.4583 
E_coul   =         8.0303 E_long   =       -11.0480 Press    =       -17.8543
------------ Step          10600 ----- CPU =   0.08040695 (sec) -------------
TotEng   =       281.5583 KinEng   =        90.0717 Temp     =       310.4506 
PotEng   =       191.4866 E_bond   =        30.5656 E_angle  =        65.1444 
E_dihed  =        29.2945 E_impro  =         1.7879 E_vdwl   =        67.9703 
E_coul   =         7.7645 E_long   =       -11.0406 Press    =       -14.4231
------------ Step          10700 ----- CPU =     0.093708 (sec) -------------
TotEng   =       290.5228 KinEng   =        82.4720 Temp     =       284.2565 
PotEng   =       208.0508 E_bond   =        22.9394 E_angle  =        71.3591 
E_dihed  =        28.9951 E_impro  =         2.9438 E_vdwl   =        85.2702 
E_coul   =         7.5708 E_long   =       -11.0277 Press    =        61.2016
------------ Step          10800 ----- CPU =    0.1067687 (sec) -------------
TotEng   =       292.8327 KinEng   =        69.1015 Temp     =       238.1725 
PotEng   =       223.7312 E_bond   =        31.5255 E_angle  =        88.9865 
E_dihed  =        34.1139 E_impro  =         6.7456 E_vdwl   =        65.5260 
E_coul   =         7.8637 E_long   =       -11.0300 Press    =       -28.8891
------------ Step          10900 ----- CPU =    0.1199049 (sec) -------------
TotEng   =       286.2996 KinEng   =        84.4743 Temp     =       291.1580 
PotEng   =       201.8253 E_bond   =        22.6682 E_angle  =        71.3297 
E_dihed  =        38.8979 E_impro  =         3.6063 E_vdwl   =        68.4014 
E_coul   =         7.9440 E_long   =       -11.0221 Press    =       -15.8953
SHAKE stats (type/ave/delta/count) on step 11000
Bond:    2   1.09      1.67336e-06       60
Bond:    6   1.02      1.51847e-06       10
Bond:   10   1.36      0                  1
Bond:   12   0.98      0                  1
------------ Step          11000 ----- CPU =    0.1330234 (sec) -------------
TotEng   =       270.0491 KinEng   =        75.7639 Temp     =       261.1359 
PotEng   =       194.2852 E_bond   =        23.3692 E_angle  =        68.7901 
E_dihed  =        29.3651 E_impro  =         1.8728 E_vdwl   =        74.2252 
E_coul   =         7.7103 E_long   =       -11.0475 Press    =         7.2188
------------ Step          11100 ----- CPU =    0.1459527 (sec) -------------
TotEng   =       268.7756 KinEng   =        77.0162 Temp     =       265.4522 
PotEng   =       191.7594 E_bond   =        22.7439 E_angle  =        65.8776 
E_dihed  =        28.2444 E_impro  =         3.0810 E_vdwl   =        75.0364 
E_coul   =         7.8231 E_long   =       -11.0471 Press    =        -4.7755
------------ Step          11200 ----- CPU =    0.1589056 (sec) -------------
TotEng   =       281.4700 KinEng   =        84.1965 Temp     =       290.2005 
PotEng   =       197.2735 E_bond   =        30.9461 E_angle  =        69.5786 
E_dihed  =        24.7743 E_impro  =         3.2005 E_vdwl   =        72.0064 
E_coul   =         7.8148 E_long   =       -11.0472 Press    =       -17.5084
------------ Step          11300 ----- CPU =    0.1717686 (sec) -------------
TotEng   =       282.6076 KinEng   =        90.9847 Temp     =       313.5975 
PotEng   =       191.6229 E_bond   =        26.0178 E_angle  =        54.6742 
E_dihed  =        36.1149 E_impro  =         2.1746 E_vdwl   =        75.7928 
E_coul   =         7.8938 E_long   =       -11.0453 Press    =         6.0696
------------ Step          11400 ----- CPU =     0.184659 (sec) -------------
TotEng   =       281.1691 KinEng   =        83.3217 Temp     =       287.1852 
PotEng   =       197.8475 E_bond   =        24.3442 E_angle  =        68.7200 
E_dihed  =        39.5110 E_impro  =         2.1508 E_vdwl   =        66.2800 
E_coul   =         7.8721 E_long   =       -11.0306 Press    =        -8.4154
SHAKE stats (type/ave/delta/count) on step 11500
Bond:    2   1.09      3.48322e-08       60
Bond:    6   1.02      1.31389e-08       10
Bond:   10   1.36      0                  1
Bond:   12   0.98      0                  1
------------ Step          11500 ----- CPU =    0.1976343 (sec) -------------
TotEng   =       280.3988 KinEng   =        83.2388 Temp     =       286.8997 
PotEng   =       197.1600 E_bond   =        24.2541 E_angle  =        78.8465 
E_dihed  =        19.5751 E_impro  =         2.6899 E_vdwl   =        75.0282 
E_coul   =         7.7902 E_long   =       -11.0241 Press    =       -14.2654
------------ Step          11600 ----- CPU =     0.211866 (sec) -------------
TotEng   =       282.0655 KinEng   =        78.8111 Temp     =       271.6385 
PotEng   =       203.2545 E_bond   =        19.6454 E_angle  =        64.6849 
E_dihed  =        41.2940 E_impro  =         3.1129 E_vdwl   =        77.7449 
E_coul   =         7.8156 E_long   =       -11.0432 Press    =        23.4096
------------ Step          11700 ----- CPU =     0.225492 (sec) -------------
TotEng   =       292.3479 KinEng   =       100.7934 Temp     =       347.4052 
PotEng   =       191.5545 E_bond   =        26.9326 E_angle  =        65.7075 
E_dihed  =        33.4972 E_impro  =         1.6614 E_vdwl   =        66.9748 
E_coul   =         7.8274 E_long   =       -11.0464 Press    =        -5.2341
------------ Step          11800 ----- CPU =    0.2384908 (sec) -------------
TotEng   =       293.0825 KinEng   =        96.7261 Temp     =       333.3863 
PotEng   =       196.3564 E_bond   =        29.6990 E_angle  =        55.3116 
E_dihed  =        29.6566 E_impro  =         3.6086 E_vdwl   =        81.3263 
E_coul   =         7.7733 E_long   =       -11.0189 Press    =        38.9450
------------ Step          11900 ----- CPU =    0.2513294 (sec) -------------
TotEng   =       280.3174 KinEng   =        83.9968 Temp     =       289.5122 
PotEng   =       196.3206 E_bond   =        28.8491 E_angle  =        61.4950 
E_dihed  =        35.7866 E_impro  =         2.5374 E_vdwl   =        70.7842 
E_coul   =         7.8822 E_long   =       -11.0140 Press    =       -30.7069
SHAKE stats (type/ave/delta/count) on step 12000
Bond:    2   1.09      3.01361e-07       45
Bond:    6   1.02      4.17644e-07       10
Bond:   10   1.36      0                  1
Bond:   12   0.98      0                  1
------------ Step          12000 ----- CPU =    0.2642689 (sec) -------------
TotEng   =       271.2356 KinEng   =        78.6816 Temp     =       271.1923 
PotEng   =       192.5540 E_bond   =        29.4022 E_angle  =        63.8828 
E_dihed  =        25.9255 E_impro  =         1.7881 E_vdwl   =        74.8952 
E_coul   =         7.6791 E_long   =       -11.0190 Press    =        -4.5905
------------ Step          12100 ----- CPU =     0.277239 (sec) -------------
TotEng   =       276.0245 KinEng   =        74.8101 Temp     =       257.8484 
PotEng   =       201.2143 E_bond   =        19.9293 E_angle  =        70.2629 
E_dihed  =        31.2183 E_impro  =         3.2412 E_vdwl   =        79.6844 
E_coul   =         7.8787 E_long   =       -11.0004 Press    =        20.3521
------------ Step          12200 ----- CPU =    0.2906754 (sec) -------------
TotEng   =       293.8376 KinEng   =        89.0953 Temp     =       307.0852 
PotEng   =       204.7423 E_bond   =        31.8482 E_angle  =        67.0107 
E_dihed  =        39.8981 E_impro  =         3.3690 E_vdwl   =        65.7875 
E_coul   =         7.8481 E_long   =       -11.0192 Press    =       -43.6328
------------ Step          12300 ----- CPU =     0.303695 (sec) -------------
TotEng   =       294.7758 KinEng   =        99.8288 Temp     =       344.0803 
PotEng   =       194.9470 E_bond   =        22.4894 E_angle  =        63.7060 
E_dihed  =        29.8387 E_impro  =         3.7197 E_vdwl   =        78.5366 
E_coul   =         7.6836 E_long   =       -11.0269 Press    =        40.6179
------------ Step          12400 ----- CPU =    0.3169017 (sec) -------------
TotEng   =       283.1331 KinEng   =        85.0534 Temp     =       293.1539 
PotEng   =       198.0797 E_bond   =        30.5740 E_angle  =        64.4398 
E_dihed  =        26.9890 E_impro  =         3.3394 E_vdwl   =        75.8988 
E_coul   =         7.8463 E_long   =       -11.0075 Press    =        -0.5951
SHAKE stats (type/ave/delta/count) on step 12500
Bond:    2   1.09      1.34892e-06       60
Bond:    6   1.02      3.17687e-07       10
Bond:   10   1.36      0                  1
Bond:   12   0.98      0                  1
------------ Step          12500 ----- CPU =     0.330355 (sec) -------------
TotEng   =       274.9436 KinEng   =        94.5676 Temp     =       325.9467 
PotEng   =       180.3760 E_bond   =        25.0460 E_angle  =        56.9296 
E_dihed  =        31.3413 E_impro  =         0.5767 E_vdwl   =        69.6029 
E_coul   =         7.9024 E_long   =       -11.0230 Press    =        -2.9533
------------ Step          12600 ----- CPU =    0.3436906 (sec) -------------
TotEng   =       274.6733 KinEng   =        80.2734 Temp     =       276.6787 
PotEng   =       194.3999 E_bond   =        22.1675 E_angle  =        68.1263 
E_dihed  =        31.1005 E_impro  =         5.3284 E_vdwl   =        71.0810 
E_coul   =         7.5979 E_long   =       -11.0017 Press    =        -6.8731
------------ Step          12700 ----- CPU =    0.3569254 (sec) -------------
TotEng   =       288.7818 KinEng   =        84.4141 Temp     =       290.9505 
PotEng   =       204.3677 E_bond   =        21.3385 E_angle  =        78.6631 
E_dihed  =        29.1505 E_impro  =         0.8253 E_vdwl   =        77.3593 
E_coul   =         8.0429 E_long   =       -11.0118 Press    =        22.0169
------------ Step          12800 ----- CPU =    0.3702656 (sec) -------------
TotEng   =       298.0081 KinEng   =       100.8008 Temp     =       347.4307 
PotEng   =       197.2073 E_bond   =        20.6436 E_angle  =        65.7449 
E_dihed  =        31.8662 E_impro  =         2.5231 E_vdwl   =        79.8143 
E_coul   =         7.6175 E_long   =       -11.0023 Press    =        18.8791
------------ Step          12900 ----- CPU =     0.383646 (sec) -------------
TotEng   =       286.5036 KinEng   =        90.0763 Temp     =       310.4665 
PotEng   =       196.4273 E_bond   =        18.2737 E_angle  =        78.5555 
E_dihed  =        28.5864 E_impro  =         2.0258 E_vdwl   =        72.2234 
E_coul   =         7.7945 E_long   =       -11.0321 Press    =         3.7502
SHAKE stats (type/ave/delta/count) on step 13000
Bond:    2   1.09      5.20153e-07       60
Bond:    6   1.02      3.77263e-07       10
Bond:   10   1.36      0                  1
Bond:   12   0.98      0                  1
------------ Step          13000 ----- CPU =    0.3971958 (sec) -------------
TotEng   =       280.9671 KinEng   =        88.5156 Temp     =       305.0872 
PotEng   =       192.4515 E_bond   =        38.5501 E_angle  =        59.1250 
E_dihed  =        24.6984 E_impro  =         1.6797 E_vdwl   =        71.7582 
E_coul   =         7.6675 E_long   =       -11.0275 Press    =        12.8474
------------ Step          13100 ----- CPU =    0.4104702 (sec) -------------
TotEng   =       278.4011 KinEng   =        80.3230 Temp     =       276.8498 
PotEng   =       198.0781 E_bond   =        25.7566 E_angle  =        72.7515 
E_dihed  =        22.4388 E_impro  =         1.2382 E_vdwl   =        79.1331 
E_coul   =         7.7856 E_long   =       -11.0257 Press    =         7.2445
------------ Step          13200 ----- CPU =    0.4237108 (sec) -------------
TotEng   =       277.1631 KinEng   =        85.4905 Temp     =       294.6605 
PotEng   =       191.6726 E_bond   =        28.3982 E_angle  =        73.3347 
E_dihed  =        27.7127 E_impro  =         1.4345 E_vdwl   =        63.9908 
E_coul   =         7.8562 E_long   =       -11.0546 Press    =         6.8683
------------ Step          13300 ----- CPU =    0.4371277 (sec) -------------
TotEng   =       270.2217 KinEng   =        86.2804 Temp     =       297.3832 
PotEng   =       183.9413 E_bond   =        23.1712 E_angle  =        57.7135 
E_dihed  =        32.8843 E_impro  =         2.8353 E_vdwl   =        70.5657 
E_coul   =         7.8388 E_long   =       -11.0675 Press    =        -2.2903
[...]
TotEng   =       273.4602 KinEng   =        89.2706 Temp     =       307.6895 
PotEng   =       184.1896 E_bond   =        20.5714 E_angle  =        60.5230 
E_dihed  =        31.9472 E_impro  =         2.1455 E_vdwl   =        72.4271 
E_coul   =         7.6168 E_long   =       -11.0413 Press    =        39.0889
------------ Step         506100 ----- CPU =      72.5435 (sec) -------------
TotEng   =       267.1587 KinEng   =        84.2713 Temp     =       290.4582 
PotEng   =       182.8874 E_bond   =        34.1490 E_angle  =        62.1885 
E_dihed  =        27.0609 E_impro  =         1.9533 E_vdwl   =        60.4801 
E_coul   =         8.0878 E_long   =       -11.0322 Press    =       -31.9414
------------ Step         506200 ----- CPU =      72.5621 (sec) -------------
TotEng   =       261.1963 KinEng   =        83.3510 Temp     =       287.2862 
PotEng   =       177.8454 E_bond   =        31.6096 E_angle  =        54.8793 
E_dihed  =        31.5724 E_impro  =         2.4970 E_vdwl   =        60.3946 
E_coul   =         7.9055 E_long   =       -11.0130 Press    =       -31.1281
------------ Step         506300 ----- CPU =      72.5811 (sec) -------------
TotEng   =       263.8163 KinEng   =        88.0392 Temp     =       303.4452 
PotEng   =       175.7770 E_bond   =        30.4911 E_angle  =        53.0717 
E_dihed  =        26.4615 E_impro  =         2.3558 E_vdwl   =        66.5775 
E_coul   =         7.8373 E_long   =       -11.0179 Press    =        -6.9567
------------ Step         506400 ----- CPU =     72.60014 (sec) -------------
TotEng   =       281.0568 KinEng   =        94.4603 Temp     =       325.5766 
PotEng   =       186.5966 E_bond   =        30.8468 E_angle  =        58.8604 
E_dihed  =        31.5385 E_impro  =         3.7561 E_vdwl   =        64.4467 
E_coul   =         8.1560 E_long   =       -11.0080 Press    =         9.7197
SHAKE stats (type/ave/delta/count) on step 506500
Bond:    2   1.09      5.15524e-07       60
Bond:    6   1.02      4.4045e-07        10
Bond:   10   1.36      2.22045e-16        1
Bond:   12   0.98      0                  1
------------ Step         506500 ----- CPU =     72.61954 (sec) -------------
TotEng   =       283.8999 KinEng   =        96.0867 Temp     =       331.1823 
PotEng   =       187.8133 E_bond   =        30.6015 E_angle  =        59.1530 
E_dihed  =        33.3343 E_impro  =         3.1269 E_vdwl   =        64.7416 
E_coul   =         7.8717 E_long   =       -11.0157 Press    =        15.2321
------------ Step         506600 ----- CPU =     72.63852 (sec) -------------
TotEng   =       275.4110 KinEng   =        87.0352 Temp     =       299.9848 
PotEng   =       188.3758 E_bond   =        40.1979 E_angle  =        61.4097 
E_dihed  =        27.5702 E_impro  =         1.1533 E_vdwl   =        61.2808 
E_coul   =         7.8020 E_long   =       -11.0381 Press    =       -67.0258
------------ Step         506700 ----- CPU =     72.65774 (sec) -------------
TotEng   =       259.9297 KinEng   =        86.8623 Temp     =       299.3888 
PotEng   =       173.0674 E_bond   =        21.0889 E_angle  =        58.6631 
E_dihed  =        28.0344 E_impro  =         2.7073 E_vdwl   =        65.7664 
E_coul   =         7.8372 E_long   =       -11.0299 Press    =        46.1008
------------ Step         506800 ----- CPU =     72.67655 (sec) -------------
TotEng   =       256.4653 KinEng   =        80.2006 Temp     =       276.4279 
PotEng   =       176.2647 E_bond   =        31.2431 E_angle  =        59.1740 
E_dihed  =        27.8884 E_impro  =         1.3277 E_vdwl   =        59.8827 
E_coul   =         7.7861 E_long   =       -11.0373 Press    =       -28.3620
------------ Step         506900 ----- CPU =     72.69523 (sec) -------------
TotEng   =       261.2734 KinEng   =        86.5033 Temp     =       298.1515 
PotEng   =       174.7700 E_bond   =        26.4913 E_angle  =        55.8933 
E_dihed  =        27.3485 E_impro  =         1.4023 E_vdwl   =        66.8985 
E_coul   =         7.7715 E_long   =       -11.0354 Press    =        38.8251
SHAKE stats (type/ave/delta/count) on step 507000
Bond:    2   1.09      7.35155e-07       60
Bond:    6   1.02      6.38612e-07       10
Bond:   10   1.36      0                  1
Bond:   12   0.980001  0                  1
------------ Step         507000 ----- CPU =     72.71465 (sec) -------------
TotEng   =       267.3284 KinEng   =        88.3425 Temp     =       304.4907 
PotEng   =       178.9859 E_bond   =        31.1241 E_angle  =        63.9253 
E_dihed  =        26.1101 E_impro  =         3.1726 E_vdwl   =        57.7388 
E_coul   =         7.9485 E_long   =       -11.0335 Press    =       -27.0250
------------ Step         507100 ----- CPU =     72.73387 (sec) -------------
TotEng   =       275.3968 KinEng   =        88.3872 Temp     =       304.6447 
PotEng   =       187.0095 E_bond   =        28.0275 E_angle  =        67.1428 
E_dihed  =        27.5439 E_impro  =         2.8294 E_vdwl   =        64.7429 
E_coul   =         7.7623 E_long   =       -11.0393 Press    =         0.3412
------------ Step         507200 ----- CPU =     72.75272 (sec) -------------
TotEng   =       283.5467 KinEng   =        90.7109 Temp     =       312.6537 
PotEng   =       192.8358 E_bond   =        24.4245 E_angle  =        73.7914 
E_dihed  =        34.0063 E_impro  =         2.5932 E_vdwl   =        61.2088 
E_coul   =         7.8437 E_long   =       -11.0320 Press    =        15.5152
------------ Step         507300 ----- CPU =       72.772 (sec) -------------
TotEng   =       300.6106 KinEng   =       110.9240 Temp     =       382.3222 
PotEng   =       189.6866 E_bond   =        28.4774 E_angle  =        68.7914 
E_dihed  =        30.7944 E_impro  =         1.6580 E_vdwl   =        63.1312 
E_coul   =         7.8814 E_long   =       -11.0473 Press    =         5.6950
------------ Step         507400 ----- CPU =     72.79124 (sec) -------------
TotEng   =       292.3789 KinEng   =        92.6995 Temp     =       319.5077 
PotEng   =       199.6794 E_bond   =        26.5902 E_angle  =        75.6356 
E_dihed  =        30.5036 E_impro  =         2.9761 E_vdwl   =        67.3697 
E_coul   =         7.6537 E_long   =       -11.0495 Press    =        22.5785
SHAKE stats (type/ave/delta/count) on step 507500
Bond:    2   1.09      6.95097e-07       45
Bond:    6   1.02      1.68035e-06       10
Bond:   10   1.36      0                  1
Bond:   12   0.98      0                  1
------------ Step         507500 ----- CPU =     72.81062 (sec) -------------
TotEng   =       275.1268 KinEng   =        80.9199 Temp     =       278.9070 
PotEng   =       194.2069 E_bond   =        28.2245 E_angle  =        74.6951 
E_dihed  =        31.1049 E_impro  =         2.4170 E_vdwl   =        60.7740 
E_coul   =         8.0190 E_long   =       -11.0276 Press    =         5.0117
------------ Step         507600 ----- CPU =     72.82948 (sec) -------------
TotEng   =       268.3786 KinEng   =        74.9718 Temp     =       258.4056 
PotEng   =       193.4068 E_bond   =        23.3427 E_angle  =        73.4234 
E_dihed  =        36.4498 E_impro  =         1.4346 E_vdwl   =        62.0831 
E_coul   =         7.7199 E_long   =       -11.0467 Press    =        45.1709
------------ Step         507700 ----- CPU =     72.84861 (sec) -------------
TotEng   =       266.1119 KinEng   =        74.7378 Temp     =       257.5992 
PotEng   =       191.3741 E_bond   =        32.6589 E_angle  =        63.1680 
E_dihed  =        33.1661 E_impro  =         3.5362 E_vdwl   =        62.1687 
E_coul   =         7.7256 E_long   =       -11.0495 Press    =       -35.0713
------------ Step         507800 ----- CPU =      72.8677 (sec) -------------
TotEng   =       269.1869 KinEng   =        95.5461 Temp     =       329.3193 
PotEng   =       173.6407 E_bond   =        28.6936 E_angle  =        52.1959 
E_dihed  =        32.3038 E_impro  =         1.9983 E_vdwl   =        61.6769 
E_coul   =         7.8110 E_long   =       -11.0387 Press    =         9.1534
------------ Step         507900 ----- CPU =     72.88726 (sec) -------------
TotEng   =       279.7520 KinEng   =        87.9039 Temp     =       302.9789 
PotEng   =       191.8480 E_bond   =        29.5986 E_angle  =        64.9397 
E_dihed  =        30.5582 E_impro  =         3.5297 E_vdwl   =        66.5090 
E_coul   =         7.7666 E_long   =       -11.0538 Press    =        24.6065
SHAKE stats (type/ave/delta/count) on step 508000
Bond:    2   1.09      6.00841e-07       45
Bond:    6   1.02      5.77225e-07       10
Bond:   10   1.36      0                  1
Bond:   12   0.98      0                  1
------------ Step         508000 ----- CPU =     72.90687 (sec) -------------
TotEng   =       289.6011 KinEng   =        92.8073 Temp     =       319.8794 
PotEng   =       196.7938 E_bond   =        24.6299 E_angle  =        74.2344 
E_dihed  =        33.2051 E_impro  =         4.2947 E_vdwl   =        63.6538 
E_coul   =         7.8052 E_long   =       -11.0292 Press    =        -2.1043
------------ Step         508100 ----- CPU =     72.92623 (sec) -------------
TotEng   =       285.6627 KinEng   =        86.3052 Temp     =       297.4685 
PotEng   =       199.3575 E_bond   =        37.0019 E_angle  =        68.4885 
E_dihed  =        34.1831 E_impro  =         4.3997 E_vdwl   =        58.4139 
E_coul   =         7.9186 E_long   =       -11.0481 Press    =       -23.3977
------------ Step         508200 ----- CPU =     72.94609 (sec) -------------
TotEng   =       265.7940 KinEng   =        85.4142 Temp     =       294.3975 
PotEng   =       180.3798 E_bond   =        24.5432 E_angle  =        65.8637 
E_dihed  =        32.4604 E_impro  =         3.0458 E_vdwl   =        57.5729 
E_coul   =         7.9456 E_long   =       -11.0518 Press    =       -12.2666
------------ Step         508300 ----- CPU =     72.96531 (sec) -------------
TotEng   =       261.4661 KinEng   =        82.6958 Temp     =       285.0282 
PotEng   =       178.7703 E_bond   =        31.1732 E_angle  =        63.2636 
E_dihed  =        31.7511 E_impro  =         3.0842 E_vdwl   =        52.6073 
E_coul   =         7.9277 E_long   =       -11.0368 Press    =       -41.1737
------------ Step         508400 ----- CPU =     72.98457 (sec) -------------
TotEng   =       267.2395 KinEng   =        88.5929 Temp     =       305.3537 
PotEng   =       178.6465 E_bond   =        27.9967 E_angle  =        59.9051 
E_dihed  =        33.4351 E_impro  =         3.6251 E_vdwl   =        56.8160 
E_coul   =         7.9098 E_long   =       -11.0413 Press    =       -19.3892
SHAKE stats (type/ave/delta/count) on step 508500
Bond:    2   1.09      1.82562e-06       45
Bond:    6   1.02      8.405e-07         10
Bond:   10   1.36      0                  1
Bond:   12   0.98      0                  1
------------ Step         508500 ----- CPU =     73.00435 (sec) -------------
TotEng   =       278.4813 KinEng   =        96.4349 Temp     =       332.3826 
PotEng   =       182.0464 E_bond   =        26.4252 E_angle  =        65.2008 
E_dihed  =        33.5779 E_impro  =         2.2870 E_vdwl   =        57.6525 
E_coul   =         7.9468 E_long   =       -11.0437 Press    =       -12.0810
------------ Step         508600 ----- CPU =     73.02381 (sec) -------------
TotEng   =       290.9588 KinEng   =        94.6809 Temp     =       326.3372 
PotEng   =       196.2779 E_bond   =        32.2200 E_angle  =        78.5093 
E_dihed  =        33.7708 E_impro  =         2.1838 E_vdwl   =        52.7749 
E_coul   =         7.8395 E_long   =       -11.0204 Press    =       -43.2877
------------ Step         508700 ----- CPU =     73.04319 (sec) -------------
TotEng   =       306.7848 KinEng   =       107.1285 Temp     =       369.2402 
PotEng   =       199.6563 E_bond   =        28.4737 E_angle  =        76.9825 
E_dihed  =        31.0630 E_impro  =         3.2826 E_vdwl   =        63.1133 
E_coul   =         7.7794 E_long   =       -11.0381 Press    =        27.3926
------------ Step         508800 ----- CPU =     73.06259 (sec) -------------
TotEng   =       291.9204 KinEng   =        91.9647 Temp     =       316.9751 
PotEng   =       199.9557 E_bond   =        41.9378 E_angle  =        69.8817 
E_dihed  =        27.2793 E_impro  =         2.9220 E_vdwl   =        61.0775 
E_coul   =         7.8904 E_long   =       -11.0332 Press    =       -41.8634
------------ Step         508900 ----- CPU =     73.08171 (sec) -------------
TotEng   =       273.0020 KinEng   =        89.6800 Temp     =       309.1006 
PotEng   =       183.3219 E_bond   =        30.3432 E_angle  =        63.6750 
E_dihed  =        27.6717 E_impro  =         2.8928 E_vdwl   =        61.9489 
E_coul   =         7.8128 E_long   =       -11.0225 Press    =        -1.2976
SHAKE stats (type/ave/delta/count) on step 509000
Bond:    2   1.09      9.07857e-07       60
Bond:    6   1.02      2.28525e-07       10
Bond:   10   1.36      0                  1
Bond:   12   0.98      0                  1
------------ Step         509000 ----- CPU =     73.10075 (sec) -------------
TotEng   =       262.7177 KinEng   =        82.3666 Temp     =       283.8933 
PotEng   =       180.3511 E_bond   =        31.0901 E_angle  =        70.1622 
E_dihed  =        28.9837 E_impro  =         1.6951 E_vdwl   =        51.5790 
E_coul   =         7.8711 E_long   =       -11.0300 Press    =       -48.9802
------------ Step         509100 ----- CPU =     73.11963 (sec) -------------
TotEng   =       257.8498 KinEng   =        86.8245 Temp     =       299.2585 
PotEng   =       171.0253 E_bond   =        28.1838 E_angle  =        64.9282 
E_dihed  =        28.4967 E_impro  =         2.6013 E_vdwl   =        49.9789 
E_coul   =         7.8730 E_long   =       -11.0366 Press    =       -46.8991
------------ Step         509200 ----- CPU =     73.13877 (sec) -------------
TotEng   =       261.9740 KinEng   =        80.5413 Temp     =       277.6022 
PotEng   =       181.4326 E_bond   =        26.9274 E_angle  =        66.5836 
E_dihed  =        29.6617 E_impro  =         1.7509 E_vdwl   =        59.9423 
E_coul   =         7.6070 E_long   =       -11.0402 Press    =        21.9840
------------ Step         509300 ----- CPU =       73.158 (sec) -------------
TotEng   =       278.0489 KinEng   =        95.3942 Temp     =       328.7957 
PotEng   =       182.6546 E_bond   =        27.1977 E_angle  =        71.3698 
E_dihed  =        27.8455 E_impro  =         1.2968 E_vdwl   =        58.0801 
E_coul   =         7.9068 E_long   =       -11.0420 Press    =        -2.0984
------------ Step         509400 ----- CPU =     73.17727 (sec) -------------
TotEng   =       277.6748 KinEng   =        91.2213 Temp     =       314.4129 
PotEng   =       186.4535 E_bond   =        20.8542 E_angle  =        81.6427 
E_dihed  =        30.0681 E_impro  =         2.9826 E_vdwl   =        54.3380 
E_coul   =         7.6102 E_long   =       -11.0424 Press    =         4.2233
SHAKE stats (type/ave/delta/count) on step 509500
Bond:    2   1.09      5.24802e-07       60
Bond:    6   1.02      7.3994e-07        10
Bond:   10   1.36      0                  1
Bond:   12   0.98      0                  1
------------ Step         509500 ----- CPU =     73.19621 (sec) -------------
TotEng   =       265.9222 KinEng   =        87.5413 Temp     =       301.7291 
PotEng   =       178.3809 E_bond   =        31.6726 E_angle  =        61.1552 
E_dihed  =        28.7631 E_impro  =         2.1736 E_vdwl   =        57.8745 
E_coul   =         7.7883 E_long   =       -11.0464 Press    =       -35.7287
------------ Step         509600 ----- CPU =     73.21542 (sec) -------------
TotEng   =       265.0878 KinEng   =        76.6112 Temp     =       264.0562 
PotEng   =       188.4766 E_bond   =        23.4765 E_angle  =        77.6391 
E_dihed  =        27.7026 E_impro  =         1.7722 E_vdwl   =        61.0540 
E_coul   =         7.8875 E_long   =       -11.0553 Press    =        16.2462
------------ Step         509700 ----- CPU =     73.23443 (sec) -------------
TotEng   =       269.5172 KinEng   =        88.7699 Temp     =       305.9636 
PotEng   =       180.7473 E_bond   =        32.3644 E_angle  =        65.4904 
E_dihed  =        33.9968 E_impro  =         1.9480 E_vdwl   =        50.1942 
E_coul   =         7.8045 E_long   =       -11.0510 Press    =       -38.3403
------------ Step         509800 ----- CPU =     73.25345 (sec) -------------
TotEng   =       274.5359 KinEng   =        87.1792 Temp     =       300.4809 
PotEng   =       187.3567 E_bond   =        27.4822 E_angle  =        68.3414 
E_dihed  =        29.7931 E_impro  =         2.8649 E_vdwl   =        62.2957 
E_coul   =         7.6273 E_long   =       -11.0480 Press    =        18.8640
------------ Step         509900 ----- CPU =     73.27235 (sec) -------------
TotEng   =       278.2172 KinEng   =        88.0236 Temp     =       303.3915 
PotEng   =       190.1935 E_bond   =        31.9629 E_angle  =        74.3764 
E_dihed  =        29.3412 E_impro  =         1.3522 E_vdwl   =        56.1898 
E_coul   =         8.0167 E_long   =       -11.0456 Press    =       -38.3656
SHAKE stats (type/ave/delta/count) on step 510000
Bond:    2   1.09      7.96284e-07       60
Bond:    6   1.02      2.47445e-07       10
Bond:   10   1.36      0                  1
Bond:   12   0.98      0                  1
------------ Step         510000 ----- CPU =     73.29138 (sec) -------------
TotEng   =       277.6101 KinEng   =        83.5039 Temp     =       287.8134 
PotEng   =       194.1062 E_bond   =        25.7964 E_angle  =        79.9043 
E_dihed  =        26.1867 E_impro  =         4.5542 E_vdwl   =        61.0006 
E_coul   =         7.7080 E_long   =       -11.0441 Press    =        14.5403
Loop time of 73.2915 on 64 procs for 500000 steps with 122 atoms

Performance: 589.427 ns/day, 0.041 hours/ns, 6822.077 timesteps/s
99.5% CPU use with 64 MPI tasks x 1 OpenMP threads

MPI task timing breakdown:
Section |  min time  |  avg time  |  max time  |%varavg| %total
---------------------------------------------------------------
Pair    | 0.14483    | 0.50903    | 6.7548     | 157.3 |  0.69
Bond    | 0.035395   | 0.29185    | 4.0865     | 142.1 |  0.40
Kspace  | 43.198     | 52.683     | 55.448     |  31.1 | 71.88
Neigh   | 0.95324    | 1.0247     | 1.1003     |   3.5 |  1.40
Comm    | 0.32528    | 4.2199     | 10.146     | 133.3 |  5.76
Output  | 1.9571     | 2.0056     | 2.0412     |   0.7 |  2.74
Modify  | 6.6297     | 11.428     | 13.361     |  56.6 | 15.59
Other   |            | 1.129      |            |       |  1.54

Nlocal:        1.90625 ave          59 max           0 min
Histogram: 62 0 0 0 0 0 0 0 0 2
Nghost:        34.6875 ave         122 max           0 min
Histogram: 29 2 15 0 0 4 0 8 0 6
Neighs:        105.031 ave        4097 max           0 min
Histogram: 62 0 0 0 0 1 0 0 0 1

Total # of neighbors = 6722
Ave neighs/atom = 55.098361
Ave special neighs/atom = 5.7540984
Neighbor list builds = 9696
Dangerous builds = 0
unfix                2
undump               1


#log                  ${sname}.${rtemp}K.${press}bar.2pt.eng
#compute              atomPE all pe/atom
#compute              atomKE all ke/atom
#variable             atomEng atom c_atomPE+c_atomKE
#
#print                "================================================"
#print                "NVT dynamics for 100ps dumping velocities"
#print                "================================================"
#thermo               2
#thermo_style         custom etotal ke temp pe ebond eangle edihed eimp evdwl ecoul elong press vol
#thermo_modify        line multi
#fix                  1 all nvt temp ${rtemp} ${rtemp} 100.0
#dump                 1 all custom 2 ${sname}.${rtemp}K.${press}bar.2pt.lammps id type xu yu zu vx vy vz v_atomEng
#run                  100000
#undump               1
#unfix                1
Total wall time: 0:01:14
