LAMMPS (8 Feb 2023)
OMP_NUM_THREADS environment is not set. Defaulting to 1 thread. (src/comm.cpp:98)
  using 1 OpenMP thread(s) per MPI task
# define variables

variable       spacing index 10.0
variable       lbox index 20.0
variable       sname string simplified_mc
variable       rtemp index 300


#package omp 4

units           real
atom_style      full
boundary        p p p
#pair_style      lj/cut/coul/long  14
pair_style      lj/charmm/coul/long/opt 13 14.00000
#pair_modify     mix arithmetic tail yes
#special_bonds   lj/coul 0.0 0.0 1.0
kspace_style    ewald 0.0001
bond_style      harmonic
angle_style     harmonic
dihedral_style  harmonic
improper_style  umbrella
#kspace_style    pppm 0.0001

# initialize a simple cumbic box for the initial structure

lattice        sc ${spacing}
lattice        sc 10.0
Lattice spacing in x,y,z = 10 10 10
region         mybox block 0 ${lbox} 0 ${lbox} 0 ${lbox} units box
region         mybox block 0 20.0 0 ${lbox} 0 ${lbox} units box
region         mybox block 0 20.0 0 20.0 0 ${lbox} units box
region         mybox block 0 20.0 0 20.0 0 20.0 units box
create_box     8 mybox                bond/types 13                angle/types 5                dihedral/types 11                improper/types 1                extra/bond/per/atom 13                extra/angle/per/atom 10                extra/dihedral/per/atom 20                extra/improper/per/atom 20                extra/special/per/atom 100
Created orthogonal box = (0 0 0) to (20 20 20)
  1 by 1 by 1 MPI processor grid

molecule       69 xlig.lammps.txt
Read molecule template 69:
  1 molecules
  0 fragments
  68 atoms with max type 7
  70 bonds with max type 10
  128 angles with max type 4
  188 dihedrals with max type 11
  39 impropers with max type 1
molecule       420 oleic.lammps.txt
Read molecule template 420:
  1 molecules
  0 fragments
  54 atoms with max type 6
  53 bonds with max type 13
  100 angles with max type 5
  141 dihedrals with max type 9
  9 impropers with max type 1


pair_modify          mix geometric
#neighbor             2.0 multi
#neigh_modify         every 2 delay 4 check yes
thermo_style         multi
thermo_modify        line multi format float %14.6f flush yes



# originally used box instead of single, which takes no args and auto populates the box until full
create_atoms   0 single 10 10 10   mol 69 42 units box
Created 68 atoms
  using box units in orthogonal box = (0 0 0) to (20 20 20)
  create_atoms CPU = 0.001 seconds
create_atoms   0 single 0 0 0  mol 420 42 units box
Created 54 atoms
  using box units in orthogonal box = (0 0 0) to (20 20 20)
  create_atoms CPU = 0.000 seconds


group xligand molecule == 69
0 atoms in group xligand
#group xligand id 1:68
#group xligand include molecule

group oleic_acid molecule == 420
0 atoms in group oleic_acid
#group oleic_acid id 69:122
#group oleic_acid include molecule



# coeffs
# Masses

mass    1 1.2011E+01 # C_3
mass    2 1.4007E+01 # N_3
mass    3 1.2011E+01 # C_R
mass    4 1.5999E+01 # O_2
mass    5 3.2060E+01 # S_3
mass    6 1.0080E+00 # H_
mass    7 1.0080E+00 # H___A
mass    8 1.5999E+01 # O_R


pair_coeff           1 1 0.09510000 3.47299041 # C_3 C_3
pair_coeff           2 2 0.07740000 3.26256026 # N_3 N_3
pair_coeff           3 3 0.09510000 3.47299041 # C_R C_R
pair_coeff           4 4 0.09570000 3.03315369 # O_2 O_2
pair_coeff           5 5 0.34400001 3.59032202 # S_3 S_3
pair_coeff           6 6 0.01520000 2.84642134 # H_ H_
pair_coeff           7 7 0.01520000 2.84642134 # H___A H___A
pair_coeff           8 8 0.09570000 3.03315369 # O_R O_R


pair_modify          mix geometric
neighbor             2.0 multi
neigh_modify         every 2 delay 4 check yes
thermo_style         multi
WARNING: New thermo_style command, previous thermo_modify settings will be lost (src/output.cpp:896)
thermo_modify        line multi format float %14.6f flush yes

bond_coeff           1 350 1.53000 # C_3 C_3
bond_coeff           2 350 1.09000 # C_3 H_
bond_coeff           3 350 1.46200 # N_3 C_3
bond_coeff           4 350 1.39200 # N_3 C_R
bond_coeff           5 525 1.39000 # C_R C_R
bond_coeff           6 350 1.02000 # C_R H_
bond_coeff           7 700 1.25000 # O_2 C_R
bond_coeff           8 350 1.73000 # S_3 C_R
bond_coeff           9 350 1.80000 # S_3 C_3
bond_coeff           10 350 1.36000 # S_3 H___A
bond_coeff           11 525 1.35000 # O_R C_R
bond_coeff           12 350 0.98000 # O_R H___A
bond_coeff           13 350 1.46000 # C_R C_3


angle_coeff          1 50 109.47100 # X C_3 X
angle_coeff          2 50 106.70000 # X N_3 X
angle_coeff          3 50 120 # X C_R X
angle_coeff          4 50 92.10000 # X S_3 X
angle_coeff          5 50 120 # X O_R X


dihedral_coeff       1 0.08333 -1 6 # C_R C_R C_3 X
dihedral_coeff       2 0.08333 -1 6 # O_2 C_R C_3 X
dihedral_coeff       3 0.08333 -1 6 # O_R C_R C_3 X
dihedral_coeff       4 0.11111 1 3 # X C_3 C_3 X
dihedral_coeff       5 0.16667 1 3 # X C_R C_3 X
dihedral_coeff       6 3.12500 -1 2 # X C_R C_R X
dihedral_coeff       7 0.16667 1 3 # X N_3 C_3 X
dihedral_coeff       8 0.12500 -1 6 # X N_3 C_R C_R
dihedral_coeff       9 6.25000 -1 2 # X O_R C_R X
dihedral_coeff       10 0.33333 1 3 # X S_3 C_3 X
dihedral_coeff       11 0.50000 -1 2 # X S_3 C_R X

improper_coeff       1 13.33333 0 # C_R X X X

timestep             0.5

print                .
.
print                ==========================================
==========================================
print                "500 steps CG Minimization"
500 steps CG Minimization
print                ==========================================
==========================================
print                .
.

dump                 1 all custom 25 ${sname}.min.lammpstrj id type xu yu zu vx vy vz
dump                 1 all custom 25 simplified_mc.min.lammpstrj id type xu yu zu vx vy vz
thermo               10
min_style            cg
minimize             1.0e-4 1.0e-4 500 5000

CITE-CITE-CITE-CITE-CITE-CITE-CITE-CITE-CITE-CITE-CITE-CITE-CITE

Your simulation uses code contributions which should be cited:

- neighbor multi command: doi:10.1016/j.cpc.2008.03.005, doi:10.1007/s40571-020-00361-2

@Article{Intveld08,
 author =  {in 't Veld, P. J. and S. J.~Plimpton and G. S. Grest},
 title =   {Accurate and Efficient Methods for Modeling Colloidal
            Mixtures in an Explicit Solvent using Molecular Dynamics},
 journal = {Comput.\ Phys.\ Commut.},
 year =    2008,
 volume =  179,
 pages =   {320--329}
}

@article{Shire2020,
 author = {Shire, Tom and Hanley, Kevin J. and Stratford, Kevin},
 title = {{DEM} Simulations of Polydisperse Media: Efficient Contact
          Detection Applied to Investigate the Quasi-Static Limit},
 journal = {Computational Particle Mechanics},
 year = {2020}
}

CITE-CITE-CITE-CITE-CITE-CITE-CITE-CITE-CITE-CITE-CITE-CITE-CITE

Switching to 'neigh_modify every 1 delay 0 check yes' setting during minimization
Ewald initialization ...
WARNING: System is not charge neutral, net charge = -0.0006 (src/kspace.cpp:327)
  using 12-bit tables for long-range coulomb (src/kspace.cpp:342)
  G vector (1/distance) = 0.091315817
  estimated absolute RMS force accuracy = 0.034067589
  estimated relative force accuracy = 0.00010259353
  KSpace vectors: actual max1d max3d = 3 1 13
                  kxmax kymax kzmax  = 1 1 1
Generated 28 of 28 mixed pair_coeff terms from geometric mixing rule
Neighbor list info ...
  update: every = 1 steps, delay = 0 steps, check = yes
  max neighbors/atom: 2000, page size: 100000
  master list distance cutoff = 16
  ghost atom cutoff = 16
  binsize = 8, bins = 3 3 3
  1 neighbor lists, perpetual/occasional/extra = 1 0 0
  (1) pair lj/charmm/coul/long/opt, perpetual
      attributes: half, newton on
      pair build: half/multi/newton
      stencil: half/multi/3d
      bin: multi
Per MPI rank memory allocation (min/avg/max) = 34.05 | 34.05 | 34.05 Mbytes
------------ Step              0 ----- CPU =            0 (sec) -------------
TotEng   =   47702.739403 KinEng   =       0.000000 Temp     =       0.000000 
PotEng   =   47702.739403 E_bond   =     110.088059 E_angle  =      36.601372 
E_dihed  =      19.805602 E_impro  =       3.329327 E_vdwl   =   47534.568145 
E_coul   =      14.541173 E_long   =     -16.194275 Press    = 1638353.761727
------------ Step             10 ----- CPU =  0.004463375 (sec) -------------
TotEng   =     596.328787 KinEng   =       0.000000 Temp     =       0.000000 
PotEng   =     596.328787 E_bond   =      29.092585 E_angle  =     169.458814 
E_dihed  =      21.557488 E_impro  =       0.960121 E_vdwl   =     377.158172 
E_coul   =      14.292449 E_long   =     -16.190841 Press    =   19067.998260
------------ Step             20 ----- CPU =   0.01094438 (sec) -------------
TotEng   =     249.850599 KinEng   =       0.000000 Temp     =       0.000000 
PotEng   =     249.850599 E_bond   =      35.496544 E_angle  =     124.677896 
E_dihed  =      28.321853 E_impro  =       0.443008 E_vdwl   =      63.072505 
E_coul   =      14.029424 E_long   =     -16.190631 Press    =    2722.572857
------------ Step             30 ----- CPU =    0.0181443 (sec) -------------
TotEng   =     225.972273 KinEng   =       0.000000 Temp     =       0.000000 
PotEng   =     225.972273 E_bond   =      39.618210 E_angle  =     129.254209 
E_dihed  =      30.451618 E_impro  =       0.382901 E_vdwl   =      28.391768 
E_coul   =      14.064877 E_long   =     -16.191311 Press    =     305.603343
------------ Step             40 ----- CPU =   0.02507444 (sec) -------------
TotEng   =     219.786672 KinEng   =       0.000000 Temp     =       0.000000 
PotEng   =     219.786672 E_bond   =      34.484094 E_angle  =     129.084093 
E_dihed  =      30.985085 E_impro  =       0.487246 E_vdwl   =      26.817438 
E_coul   =      14.121248 E_long   =     -16.192534 Press    =     307.202091
------------ Step             50 ----- CPU =   0.03218026 (sec) -------------
TotEng   =     215.723883 KinEng   =       0.000000 Temp     =       0.000000 
PotEng   =     215.723883 E_bond   =      33.890767 E_angle  =     124.123501 
E_dihed  =      31.058740 E_impro  =       0.646177 E_vdwl   =      28.070354 
E_coul   =      14.128338 E_long   =     -16.193995 Press    =     378.696982
------------ Step             60 ----- CPU =   0.04004003 (sec) -------------
TotEng   =     211.069248 KinEng   =       0.000000 Temp     =       0.000000 
PotEng   =     211.069248 E_bond   =      32.989417 E_angle  =     125.700686 
E_dihed  =      31.930270 E_impro  =       0.637513 E_vdwl   =      22.013072 
E_coul   =      13.993409 E_long   =     -16.195120 Press    =      -4.340969
------------ Step             70 ----- CPU =    0.0470047 (sec) -------------
TotEng   =     208.852078 KinEng   =       0.000000 Temp     =       0.000000 
PotEng   =     208.852078 E_bond   =      31.731766 E_angle  =     125.592842 
E_dihed  =      32.788984 E_impro  =       0.501010 E_vdwl   =      20.700952 
E_coul   =      13.731832 E_long   =     -16.195308 Press    =     -19.031962
------------ Step             80 ----- CPU =    0.0541442 (sec) -------------
TotEng   =     207.619682 KinEng   =       0.000000 Temp     =       0.000000 
PotEng   =     207.619682 E_bond   =      30.797855 E_angle  =     124.635052 
E_dihed  =      32.280441 E_impro  =       0.410012 E_vdwl   =      21.931183 
E_coul   =      13.760014 E_long   =     -16.194875 Press    =      17.143243
------------ Step             90 ----- CPU =   0.06105629 (sec) -------------
TotEng   =     205.989502 KinEng   =       0.000000 Temp     =       0.000000 
PotEng   =     205.989502 E_bond   =      31.262144 E_angle  =     123.459366 
E_dihed  =      31.357782 E_impro  =       0.513904 E_vdwl   =      21.977937 
E_coul   =      13.612277 E_long   =     -16.193908 Press    =    -182.860197
------------ Step             95 ----- CPU =    0.0830496 (sec) -------------
TotEng   =     205.345434 KinEng   =       0.000000 Temp     =       0.000000 
PotEng   =     205.345434 E_bond   =      31.256940 E_angle  =     124.109575 
E_dihed  =      30.968575 E_impro  =       0.522200 E_vdwl   =      21.072483 
E_coul   =      13.609042 E_long   =     -16.193379 Press    =    -268.491226
Loop time of 0.0831219 on 1 procs for 95 steps with 122 atoms

95.1% CPU use with 1 MPI tasks x 1 OpenMP threads

Minimization stats:
  Stopping criterion = linesearch alpha is zero
  Energy initial, next-to-last, final = 
      47702.7394031284   205.345434110941   205.345434110941
  Force two-norm initial, final = 806464.22 17.295112
  Force max component initial, final = 496010.82 3.8946361
  Final line search alpha, max atom move = 3.9542969e-11 1.5400547e-10
  Iterations, force evaluations = 95 232

MPI task timing breakdown:
Section |  min time  |  avg time  |  max time  |%varavg| %total
---------------------------------------------------------------
Pair    | 0.067025   | 0.067025   | 0.067025   |   0.0 | 80.63
Bond    | 0.0077641  | 0.0077641  | 0.0077641  |   0.0 |  9.34
Kspace  | 0.0032123  | 0.0032123  | 0.0032123  |   0.0 |  3.86
Neigh   | 0.0017026  | 0.0017026  | 0.0017026  |   0.0 |  2.05
Comm    | 0.00145    | 0.00145    | 0.00145    |   0.0 |  1.74
Output  | 0.0011003  | 0.0011003  | 0.0011003  |   0.0 |  1.32
Modify  | 0          | 0          | 0          |   0.0 |  0.00
Other   |            | 0.000868   |            |       |  1.04

Nlocal:            122 ave         122 max         122 min
Histogram: 1 0 0 0 0 0 0 0 0 0
Nghost:           1778 ave        1778 max        1778 min
Histogram: 1 0 0 0 0 0 0 0 0 0
Neighs:          14789 ave       14789 max       14789 min
Histogram: 1 0 0 0 0 0 0 0 0 0

Total # of neighbors = 14789
Ave neighs/atom = 121.22131
Ave special neighs/atom = 10.967213
Neighbor list builds = 2
Dangerous builds = 0
min_style            sd
minimize             1.0e-4 1.0e-4 500 5000
Switching to 'neigh_modify every 1 delay 0 check yes' setting during minimization
Ewald initialization ...
  using 12-bit tables for long-range coulomb (src/kspace.cpp:342)
  G vector (1/distance) = 0.091315817
  estimated absolute RMS force accuracy = 0.034067589
  estimated relative force accuracy = 0.00010259353
  KSpace vectors: actual max1d max3d = 3 1 13
                  kxmax kymax kzmax  = 1 1 1
Generated 28 of 28 mixed pair_coeff terms from geometric mixing rule
Per MPI rank memory allocation (min/avg/max) = 34.05 | 34.05 | 34.05 Mbytes
------------ Step             95 ----- CPU =            0 (sec) -------------
TotEng   =     205.345434 KinEng   =       0.000000 Temp     =       0.000000 
PotEng   =     205.345434 E_bond   =      31.256940 E_angle  =     124.109575 
E_dihed  =      30.968575 E_impro  =       0.522200 E_vdwl   =      21.072483 
E_coul   =      13.609042 E_long   =     -16.193379 Press    =    -268.491226
------------ Step            100 ----- CPU =  0.003677773 (sec) -------------
TotEng   =     205.173040 KinEng   =       0.000000 Temp     =       0.000000 
PotEng   =     205.173040 E_bond   =      31.264771 E_angle  =     123.956632 
E_dihed  =      30.955378 E_impro  =       0.531958 E_vdwl   =      21.049732 
E_coul   =      13.607982 E_long   =     -16.193413 Press    =    -244.190797
------------ Step            104 ----- CPU =  0.007009584 (sec) -------------
TotEng   =     205.076324 KinEng   =       0.000000 Temp     =       0.000000 
PotEng   =     205.076324 E_bond   =      31.237050 E_angle  =     123.939660 
E_dihed  =      30.940751 E_impro  =       0.530301 E_vdwl   =      21.027027 
E_coul   =      13.594959 E_long   =     -16.193424 Press    =    -237.321352
Loop time of 0.00704018 on 1 procs for 9 steps with 122 atoms

99.2% CPU use with 1 MPI tasks x 1 OpenMP threads

Minimization stats:
  Stopping criterion = energy tolerance
  Energy initial, next-to-last, final = 
      205.345434110941   205.096470468925   205.076324343458
  Force two-norm initial, final = 17.295112 6.4188986
  Force max component initial, final = 3.8946361 1.6463643
  Final line search alpha, max atom move = 0.026816678 0.044150021
  Iterations, force evaluations = 9 18

MPI task timing breakdown:
Section |  min time  |  avg time  |  max time  |%varavg| %total
---------------------------------------------------------------
Pair    | 0.0055342  | 0.0055342  | 0.0055342  |   0.0 | 78.61
Bond    | 0.00064391 | 0.00064391 | 0.00064391 |   0.0 |  9.15
Kspace  | 0.00026252 | 0.00026252 | 0.00026252 |   0.0 |  3.73
Neigh   | 0          | 0          | 0          |   0.0 |  0.00
Comm    | 0.00011431 | 0.00011431 | 0.00011431 |   0.0 |  1.62
Output  | 0.00022209 | 0.00022209 | 0.00022209 |   0.0 |  3.15
Modify  | 0          | 0          | 0          |   0.0 |  0.00
Other   |            | 0.0002631  |            |       |  3.74

Nlocal:            122 ave         122 max         122 min
Histogram: 1 0 0 0 0 0 0 0 0 0
Nghost:           1772 ave        1772 max        1772 min
Histogram: 1 0 0 0 0 0 0 0 0 0
Neighs:          14833 ave       14833 max       14833 min
Histogram: 1 0 0 0 0 0 0 0 0 0

Total # of neighbors = 14833
Ave neighs/atom = 121.58197
Ave special neighs/atom = 10.967213
Neighbor list builds = 0
Dangerous builds = 0
#now                 minimize the entire system
minimize             1.0e-4 1.0e-4 500 5000
Switching to 'neigh_modify every 1 delay 0 check yes' setting during minimization
Ewald initialization ...
  using 12-bit tables for long-range coulomb (src/kspace.cpp:342)
  G vector (1/distance) = 0.091315817
  estimated absolute RMS force accuracy = 0.034067589
  estimated relative force accuracy = 0.00010259353
  KSpace vectors: actual max1d max3d = 3 1 13
                  kxmax kymax kzmax  = 1 1 1
Generated 28 of 28 mixed pair_coeff terms from geometric mixing rule
Per MPI rank memory allocation (min/avg/max) = 34.05 | 34.05 | 34.05 Mbytes
------------ Step            104 ----- CPU =            0 (sec) -------------
TotEng   =     205.076324 KinEng   =       0.000000 Temp     =       0.000000 
PotEng   =     205.076324 E_bond   =      31.237050 E_angle  =     123.939660 
E_dihed  =      30.940751 E_impro  =       0.530301 E_vdwl   =      21.027027 
E_coul   =      13.594959 E_long   =     -16.193424 Press    =    -237.321352
------------ Step            105 ----- CPU =  0.001263923 (sec) -------------
TotEng   =     205.056190 KinEng   =       0.000000 Temp     =       0.000000 
PotEng   =     205.056190 E_bond   =      31.246060 E_angle  =     123.917920 
E_dihed  =      30.937011 E_impro  =       0.530112 E_vdwl   =      21.023341 
E_coul   =      13.595173 E_long   =     -16.193426 Press    =    -233.838700
Loop time of 0.00128818 on 1 procs for 1 steps with 122 atoms

98.6% CPU use with 1 MPI tasks x 1 OpenMP threads

Minimization stats:
  Stopping criterion = energy tolerance
  Energy initial, next-to-last, final = 
      205.076324343458   205.076324343458   205.056190121107
  Force two-norm initial, final = 6.4188986 10.477346
  Force max component initial, final = 1.6463643 3.789046
  Final line search alpha, max atom move = 0.060739898 0.23014627
  Iterations, force evaluations = 1 2

MPI task timing breakdown:
Section |  min time  |  avg time  |  max time  |%varavg| %total
---------------------------------------------------------------
Pair    | 0.00089934 | 0.00089934 | 0.00089934 |   0.0 | 69.82
Bond    | 0.00011592 | 0.00011592 | 0.00011592 |   0.0 |  9.00
Kspace  | 4.1928e-05 | 4.1928e-05 | 4.1928e-05 |   0.0 |  3.25
Neigh   | 0          | 0          | 0          |   0.0 |  0.00
Comm    | 1.8303e-05 | 1.8303e-05 | 1.8303e-05 |   0.0 |  1.42
Output  | 0          | 0          | 0          |   0.0 |  0.00
Modify  | 0          | 0          | 0          |   0.0 |  0.00
Other   |            | 0.0002127  |            |       | 16.51

Nlocal:            122 ave         122 max         122 min
Histogram: 1 0 0 0 0 0 0 0 0 0
Nghost:           1772 ave        1772 max        1772 min
Histogram: 1 0 0 0 0 0 0 0 0 0
Neighs:          14835 ave       14835 max       14835 min
Histogram: 1 0 0 0 0 0 0 0 0 0

Total # of neighbors = 14835
Ave neighs/atom = 121.59836
Ave special neighs/atom = 10.967213
Neighbor list builds = 0
Dangerous builds = 0
undump               1


thermo               10
fix                  freeze oleic_acid setforce 0.0 0.0 0.0
fix                  1 all gcmc 1 0 100 0 1234567 0 0 5 mol 69 full_energy mcmoves 0 1 1
dump                 2 all custom 10 ${sname}.simple_mc.lammpstrj id type xu yu zu vx vy vz
dump                 2 all custom 10 simplified_mc.simple_mc.lammpstrj id type xu yu zu vx vy vz
run                  1000
WARNING: No fixes with time integration, atoms won't move (src/verlet.cpp:60)
Ewald initialization ...
  using 12-bit tables for long-range coulomb (src/kspace.cpp:342)
  G vector (1/distance) = 0.091315817
  estimated absolute RMS force accuracy = 0.034067589
  estimated relative force accuracy = 0.00010259353
  KSpace vectors: actual max1d max3d = 3 1 13
                  kxmax kymax kzmax  = 1 1 1
Generated 28 of 28 mixed pair_coeff terms from geometric mixing rule
0 atoms in group FixGCMC:gcmc_exclusion_group:1
0 atoms in group FixGCMC:rotation_gas_atoms:1
WARNING: Fix gcmc is being applied to the default group all (src/MC/fix_gcmc.cpp:672)
WARNING: Neighbor exclusions used with KSpace solver may give inconsistent Coulombic energies (src/neighbor.cpp:639)
Per MPI rank memory allocation (min/avg/max) = 31.66 | 31.66 | 31.66 Mbytes
------------ Step            105 ----- CPU =            0 (sec) -------------
TotEng   =     205.056190 KinEng   =       0.000000 Temp     =       0.000000 
PotEng   =     205.056190 E_bond   =      31.246060 E_angle  =     123.917920 
E_dihed  =      30.937011 E_impro  =       0.530112 E_vdwl   =      21.023341 
E_coul   =      13.595173 E_long   =     -16.193426 Press    =    -233.838700
------------ Step            110 ----- CPU =    0.8153022 (sec) -------------
TotEng   =     193.572170 KinEng   =       0.000000 Temp     =       0.000000 
PotEng   =     193.572170 E_bond   =      31.246060 E_angle  =     123.917920 
E_dihed  =      30.937011 E_impro  =       0.530112 E_vdwl   =       9.634780 
E_coul   =      13.506595 E_long   =     -16.200306 Press    =    -310.760569
------------ Step            120 ----- CPU =     2.462157 (sec) -------------
TotEng   =     192.147753 KinEng   =       0.000000 Temp     =       0.000000 
PotEng   =     192.147753 E_bond   =      31.246060 E_angle  =     123.917920 
E_dihed  =      30.937011 E_impro  =       0.530112 E_vdwl   =       7.970327 
E_coul   =      13.747077 E_long   =     -16.200754 Press    =    -295.448035
------------ Step            130 ----- CPU =     4.089859 (sec) -------------
TotEng   =     191.494319 KinEng   =       0.000000 Temp     =       0.000000 
PotEng   =     191.494319 E_bond   =      31.246060 E_angle  =     123.917920 
E_dihed  =      30.937011 E_impro  =       0.530112 E_vdwl   =       7.641776 
E_coul   =      13.422312 E_long   =     -16.200870 Press    =    -322.677609
------------ Step            140 ----- CPU =     5.711987 (sec) -------------
TotEng   =     191.146393 KinEng   =       0.000000 Temp     =       0.000000 
PotEng   =     191.146393 E_bond   =      31.246060 E_angle  =     123.917920 
E_dihed  =      30.937011 E_impro  =       0.530112 E_vdwl   =       7.565109 
E_coul   =      13.150948 E_long   =     -16.200766 Press    =    -317.654944
------------ Step            150 ----- CPU =     7.333205 (sec) -------------
TotEng   =     191.069862 KinEng   =       0.000000 Temp     =       0.000000 
PotEng   =     191.069862 E_bond   =      31.246060 E_angle  =     123.917920 
E_dihed  =      30.937011 E_impro  =       0.530112 E_vdwl   =       7.438547 
E_coul   =      13.201008 E_long   =     -16.200794 Press    =    -309.124443
------------ Step            160 ----- CPU =     8.955543 (sec) -------------
TotEng   =     191.066712 KinEng   =       0.000000 Temp     =       0.000000 
PotEng   =     191.066712 E_bond   =      31.246060 E_angle  =     123.917920 
E_dihed  =      30.937011 E_impro  =       0.530112 E_vdwl   =       7.437400 
E_coul   =      13.199006 E_long   =     -16.200795 Press    =    -308.680185
------------ Step            170 ----- CPU =     10.57591 (sec) -------------
TotEng   =     190.848608 KinEng   =       0.000000 Temp     =       0.000000 
PotEng   =     190.848608 E_bond   =      31.246060 E_angle  =     123.917920 
E_dihed  =      30.937011 E_impro  =       0.530112 E_vdwl   =       7.368229 
E_coul   =      13.050200 E_long   =     -16.200923 Press    =    -308.719635
------------ Step            180 ----- CPU =     12.19379 (sec) -------------
TotEng   =     190.806461 KinEng   =       0.000000 Temp     =       0.000000 
PotEng   =     190.806461 E_bond   =      31.246060 E_angle  =     123.917920 
E_dihed  =      30.937011 E_impro  =       0.530112 E_vdwl   =       7.353185 
E_coul   =      13.023122 E_long   =     -16.200948 Press    =    -311.116941
------------ Step            190 ----- CPU =     13.81022 (sec) -------------
TotEng   =     190.806461 KinEng   =       0.000000 Temp     =       0.000000 
PotEng   =     190.806461 E_bond   =      31.246060 E_angle  =     123.917920 
E_dihed  =      30.937011 E_impro  =       0.530112 E_vdwl   =       7.353185 
E_coul   =      13.023122 E_long   =     -16.200948 Press    =    -311.116941
------------ Step            200 ----- CPU =     15.42677 (sec) -------------
TotEng   =     190.801201 KinEng   =       0.000000 Temp     =       0.000000 
PotEng   =     190.801201 E_bond   =      31.246060 E_angle  =     123.917920 
E_dihed  =      30.937011 E_impro  =       0.530112 E_vdwl   =       7.362412 
E_coul   =      13.008586 E_long   =     -16.200899 Press    =    -333.850261
------------ Step            210 ----- CPU =     17.04459 (sec) -------------
TotEng   =     190.794200 KinEng   =       0.000000 Temp     =       0.000000 
PotEng   =     190.794200 E_bond   =      31.246060 E_angle  =     123.917920 
E_dihed  =      30.937011 E_impro  =       0.530112 E_vdwl   =       7.354742 
E_coul   =      13.009260 E_long   =     -16.200905 Press    =    -332.305310
------------ Step            220 ----- CPU =     18.66229 (sec) -------------
TotEng   =     190.740933 KinEng   =       0.000000 Temp     =       0.000000 
PotEng   =     190.740933 E_bond   =      31.246060 E_angle  =     123.917920 
E_dihed  =      30.937011 E_impro  =       0.530112 E_vdwl   =       7.321798 
E_coul   =      12.988911 E_long   =     -16.200879 Press    =    -333.780689
------------ Step            230 ----- CPU =     20.27969 (sec) -------------
TotEng   =     190.739637 KinEng   =       0.000000 Temp     =       0.000000 
PotEng   =     190.739637 E_bond   =      31.246060 E_angle  =     123.917920 
E_dihed  =      30.937011 E_impro  =       0.530112 E_vdwl   =       7.323019 
E_coul   =      12.986395 E_long   =     -16.200878 Press    =    -333.957790
------------ Step            240 ----- CPU =     21.89639 (sec) -------------
TotEng   =     190.739637 KinEng   =       0.000000 Temp     =       0.000000 
PotEng   =     190.739637 E_bond   =      31.246060 E_angle  =     123.917920 
E_dihed  =      30.937011 E_impro  =       0.530112 E_vdwl   =       7.323019 
E_coul   =      12.986395 E_long   =     -16.200878 Press    =    -333.957790
------------ Step            250 ----- CPU =     23.51515 (sec) -------------
TotEng   =     190.730977 KinEng   =       0.000000 Temp     =       0.000000 
PotEng   =     190.730977 E_bond   =      31.246060 E_angle  =     123.917920 
E_dihed  =      30.937011 E_impro  =       0.530112 E_vdwl   =       7.319653 
E_coul   =      12.981105 E_long   =     -16.200883 Press    =    -333.058596
------------ Step            260 ----- CPU =     25.13448 (sec) -------------
TotEng   =     190.730718 KinEng   =       0.000000 Temp     =       0.000000 
PotEng   =     190.730718 E_bond   =      31.246060 E_angle  =     123.917920 
E_dihed  =      30.937011 E_impro  =       0.530112 E_vdwl   =       7.319411 
E_coul   =      12.981088 E_long   =     -16.200883 Press    =    -333.012188
------------ Step            270 ----- CPU =     26.75229 (sec) -------------
TotEng   =     190.730718 KinEng   =       0.000000 Temp     =       0.000000 
PotEng   =     190.730718 E_bond   =      31.246060 E_angle  =     123.917920 
E_dihed  =      30.937011 E_impro  =       0.530112 E_vdwl   =       7.319411 
E_coul   =      12.981088 E_long   =     -16.200883 Press    =    -333.012188
------------ Step            280 ----- CPU =     28.36993 (sec) -------------
TotEng   =     190.730718 KinEng   =       0.000000 Temp     =       0.000000 
PotEng   =     190.730718 E_bond   =      31.246060 E_angle  =     123.917920 
E_dihed  =      30.937011 E_impro  =       0.530112 E_vdwl   =       7.319411 
E_coul   =      12.981088 E_long   =     -16.200883 Press    =    -333.012188
------------ Step            290 ----- CPU =      29.9918 (sec) -------------
TotEng   =     190.728772 KinEng   =       0.000000 Temp     =       0.000000 
PotEng   =     190.728772 E_bond   =      31.246060 E_angle  =     123.917920 
E_dihed  =      30.937011 E_impro  =       0.530112 E_vdwl   =       7.308971 
E_coul   =      12.989590 E_long   =     -16.200892 Press    =    -331.074834
------------ Step            300 ----- CPU =     31.60883 (sec) -------------
TotEng   =     190.725589 KinEng   =       0.000000 Temp     =       0.000000 
PotEng   =     190.725589 E_bond   =      31.246060 E_angle  =     123.917920 
E_dihed  =      30.937011 E_impro  =       0.530112 E_vdwl   =       7.314759 
E_coul   =      12.980624 E_long   =     -16.200896 Press    =    -331.221625
------------ Step            310 ----- CPU =      33.2263 (sec) -------------
TotEng   =     190.725114 KinEng   =       0.000000 Temp     =       0.000000 
PotEng   =     190.725114 E_bond   =      31.246060 E_angle  =     123.917920 
E_dihed  =      30.937011 E_impro  =       0.530112 E_vdwl   =       7.314250 
E_coul   =      12.980658 E_long   =     -16.200896 Press    =    -331.230797
------------ Step            320 ----- CPU =     34.84455 (sec) -------------
TotEng   =     190.725114 KinEng   =       0.000000 Temp     =       0.000000 
PotEng   =     190.725114 E_bond   =      31.246060 E_angle  =     123.917920 
E_dihed  =      30.937011 E_impro  =       0.530112 E_vdwl   =       7.314250 
E_coul   =      12.980658 E_long   =     -16.200896 Press    =    -331.230797
------------ Step            330 ----- CPU =     36.46249 (sec) -------------
TotEng   =     190.724086 KinEng   =       0.000000 Temp     =       0.000000 
PotEng   =     190.724086 E_bond   =      31.246060 E_angle  =     123.917920 
E_dihed  =      30.937011 E_impro  =       0.530112 E_vdwl   =       7.313231 
E_coul   =      12.980652 E_long   =     -16.200899 Press    =    -330.467888
------------ Step            340 ----- CPU =     38.08144 (sec) -------------
TotEng   =     190.724086 KinEng   =       0.000000 Temp     =       0.000000 
PotEng   =     190.724086 E_bond   =      31.246060 E_angle  =     123.917920 
E_dihed  =      30.937011 E_impro  =       0.530112 E_vdwl   =       7.313231 
E_coul   =      12.980652 E_long   =     -16.200899 Press    =    -330.467888
------------ Step            350 ----- CPU =     39.69938 (sec) -------------
TotEng   =     190.724051 KinEng   =       0.000000 Temp     =       0.000000 
PotEng   =     190.724051 E_bond   =      31.246060 E_angle  =     123.917920 
E_dihed  =      30.937011 E_impro  =       0.530112 E_vdwl   =       7.313185 
E_coul   =      12.980663 E_long   =     -16.200898 Press    =    -330.550662
------------ Step            360 ----- CPU =     41.31685 (sec) -------------
TotEng   =     190.724051 KinEng   =       0.000000 Temp     =       0.000000 
PotEng   =     190.724051 E_bond   =      31.246060 E_angle  =     123.917920 
E_dihed  =      30.937011 E_impro  =       0.530112 E_vdwl   =       7.313185 
E_coul   =      12.980663 E_long   =     -16.200898 Press    =    -330.550662
------------ Step            370 ----- CPU =     42.93275 (sec) -------------
TotEng   =     190.723022 KinEng   =       0.000000 Temp     =       0.000000 
PotEng   =     190.723022 E_bond   =      31.246060 E_angle  =     123.917920 
E_dihed  =      30.937011 E_impro  =       0.530112 E_vdwl   =       7.316580 
E_coul   =      12.976238 E_long   =     -16.200899 Press    =    -330.330079
------------ Step            380 ----- CPU =     44.54979 (sec) -------------
TotEng   =     190.723022 KinEng   =       0.000000 Temp     =       0.000000 
PotEng   =     190.723022 E_bond   =      31.246060 E_angle  =     123.917920 
E_dihed  =      30.937011 E_impro  =       0.530112 E_vdwl   =       7.316580 
E_coul   =      12.976238 E_long   =     -16.200899 Press    =    -330.330079
------------ Step            390 ----- CPU =     46.16705 (sec) -------------
TotEng   =     190.723022 KinEng   =       0.000000 Temp     =       0.000000 
PotEng   =     190.723022 E_bond   =      31.246060 E_angle  =     123.917920 
E_dihed  =      30.937011 E_impro  =       0.530112 E_vdwl   =       7.316580 
E_coul   =      12.976238 E_long   =     -16.200899 Press    =    -330.330079
------------ Step            400 ----- CPU =     47.78354 (sec) -------------
TotEng   =     190.723022 KinEng   =       0.000000 Temp     =       0.000000 
PotEng   =     190.723022 E_bond   =      31.246060 E_angle  =     123.917920 
E_dihed  =      30.937011 E_impro  =       0.530112 E_vdwl   =       7.316580 
E_coul   =      12.976238 E_long   =     -16.200899 Press    =    -330.330079
------------ Step            410 ----- CPU =     49.40175 (sec) -------------
TotEng   =     190.723022 KinEng   =       0.000000 Temp     =       0.000000 
PotEng   =     190.723022 E_bond   =      31.246060 E_angle  =     123.917920 
E_dihed  =      30.937011 E_impro  =       0.530112 E_vdwl   =       7.316580 
E_coul   =      12.976238 E_long   =     -16.200899 Press    =    -330.330079
------------ Step            420 ----- CPU =     51.01884 (sec) -------------
TotEng   =     190.723022 KinEng   =       0.000000 Temp     =       0.000000 
PotEng   =     190.723022 E_bond   =      31.246060 E_angle  =     123.917920 
E_dihed  =      30.937011 E_impro  =       0.530112 E_vdwl   =       7.316580 
E_coul   =      12.976238 E_long   =     -16.200899 Press    =    -330.330079
------------ Step            430 ----- CPU =     52.63529 (sec) -------------
TotEng   =     190.722106 KinEng   =       0.000000 Temp     =       0.000000 
PotEng   =     190.722106 E_bond   =      31.246060 E_angle  =     123.917920 
E_dihed  =      30.937011 E_impro  =       0.530112 E_vdwl   =       7.315643 
E_coul   =      12.976261 E_long   =     -16.200900 Press    =    -329.939825
------------ Step            440 ----- CPU =     54.25206 (sec) -------------
TotEng   =     190.706395 KinEng   =       0.000000 Temp     =       0.000000 
PotEng   =     190.706395 E_bond   =      31.246060 E_angle  =     123.917920 
E_dihed  =      30.937011 E_impro  =       0.530112 E_vdwl   =       7.304713 
E_coul   =      12.971481 E_long   =     -16.200901 Press    =    -328.226265
------------ Step            450 ----- CPU =     55.86812 (sec) -------------
TotEng   =     190.706395 KinEng   =       0.000000 Temp     =       0.000000 
PotEng   =     190.706395 E_bond   =      31.246060 E_angle  =     123.917920 
E_dihed  =      30.937011 E_impro  =       0.530112 E_vdwl   =       7.304713 
E_coul   =      12.971481 E_long   =     -16.200901 Press    =    -328.226265
------------ Step            460 ----- CPU =     57.48424 (sec) -------------
TotEng   =     190.706395 KinEng   =       0.000000 Temp     =       0.000000 
PotEng   =     190.706395 E_bond   =      31.246060 E_angle  =     123.917920 
E_dihed  =      30.937011 E_impro  =       0.530112 E_vdwl   =       7.304713 
E_coul   =      12.971481 E_long   =     -16.200901 Press    =    -328.226265
------------ Step            470 ----- CPU =     59.10123 (sec) -------------
TotEng   =     190.706395 KinEng   =       0.000000 Temp     =       0.000000 
PotEng   =     190.706395 E_bond   =      31.246060 E_angle  =     123.917920 
E_dihed  =      30.937011 E_impro  =       0.530112 E_vdwl   =       7.304713 
E_coul   =      12.971481 E_long   =     -16.200901 Press    =    -328.226265
------------ Step            480 ----- CPU =     60.71609 (sec) -------------
TotEng   =     190.706395 KinEng   =       0.000000 Temp     =       0.000000 
PotEng   =     190.706395 E_bond   =      31.246060 E_angle  =     123.917920 
E_dihed  =      30.937011 E_impro  =       0.530112 E_vdwl   =       7.304713 
E_coul   =      12.971481 E_long   =     -16.200901 Press    =    -328.226265
------------ Step            490 ----- CPU =     62.33306 (sec) -------------
TotEng   =     190.706395 KinEng   =       0.000000 Temp     =       0.000000 
PotEng   =     190.706395 E_bond   =      31.246060 E_angle  =     123.917920 
E_dihed  =      30.937011 E_impro  =       0.530112 E_vdwl   =       7.304713 
E_coul   =      12.971481 E_long   =     -16.200901 Press    =    -328.226265
------------ Step            500 ----- CPU =     63.94758 (sec) -------------
TotEng   =     190.705989 KinEng   =       0.000000 Temp     =       0.000000 
PotEng   =     190.705989 E_bond   =      31.246060 E_angle  =     123.917920 
E_dihed  =      30.937011 E_impro  =       0.530112 E_vdwl   =       7.304278 
E_coul   =      12.971509 E_long   =     -16.200900 Press    =    -328.354832
------------ Step            510 ----- CPU =     65.56455 (sec) -------------
TotEng   =     190.705989 KinEng   =       0.000000 Temp     =       0.000000 
PotEng   =     190.705989 E_bond   =      31.246060 E_angle  =     123.917920 
E_dihed  =      30.937011 E_impro  =       0.530112 E_vdwl   =       7.304278 
E_coul   =      12.971509 E_long   =     -16.200900 Press    =    -328.354832
------------ Step            520 ----- CPU =     67.17797 (sec) -------------
TotEng   =     190.705831 KinEng   =       0.000000 Temp     =       0.000000 
PotEng   =     190.705831 E_bond   =      31.246060 E_angle  =     123.917920 
E_dihed  =      30.937011 E_impro  =       0.530112 E_vdwl   =       7.304124 
E_coul   =      12.971506 E_long   =     -16.200901 Press    =    -328.075226
------------ Step            530 ----- CPU =     68.79155 (sec) -------------
TotEng   =     190.705831 KinEng   =       0.000000 Temp     =       0.000000 
PotEng   =     190.705831 E_bond   =      31.246060 E_angle  =     123.917920 
E_dihed  =      30.937011 E_impro  =       0.530112 E_vdwl   =       7.304124 
E_coul   =      12.971506 E_long   =     -16.200901 Press    =    -328.075226
------------ Step            540 ----- CPU =     70.40595 (sec) -------------
TotEng   =     190.705831 KinEng   =       0.000000 Temp     =       0.000000 
PotEng   =     190.705831 E_bond   =      31.246060 E_angle  =     123.917920 
E_dihed  =      30.937011 E_impro  =       0.530112 E_vdwl   =       7.304124 
E_coul   =      12.971506 E_long   =     -16.200901 Press    =    -328.075226
------------ Step            550 ----- CPU =     72.02073 (sec) -------------
TotEng   =     190.703127 KinEng   =       0.000000 Temp     =       0.000000 
PotEng   =     190.703127 E_bond   =      31.246060 E_angle  =     123.917920 
E_dihed  =      30.937011 E_impro  =       0.530112 E_vdwl   =       7.301508 
E_coul   =      12.971419 E_long   =     -16.200903 Press    =    -327.852980
------------ Step            560 ----- CPU =     73.63536 (sec) -------------
TotEng   =     190.703127 KinEng   =       0.000000 Temp     =       0.000000 
PotEng   =     190.703127 E_bond   =      31.246060 E_angle  =     123.917920 
E_dihed  =      30.937011 E_impro  =       0.530112 E_vdwl   =       7.301508 
E_coul   =      12.971419 E_long   =     -16.200903 Press    =    -327.852980
------------ Step            570 ----- CPU =      75.2502 (sec) -------------
TotEng   =     190.703127 KinEng   =       0.000000 Temp     =       0.000000 
PotEng   =     190.703127 E_bond   =      31.246060 E_angle  =     123.917920 
E_dihed  =      30.937011 E_impro  =       0.530112 E_vdwl   =       7.301508 
E_coul   =      12.971419 E_long   =     -16.200903 Press    =    -327.852980
------------ Step            580 ----- CPU =     76.86561 (sec) -------------
TotEng   =     190.701245 KinEng   =       0.000000 Temp     =       0.000000 
PotEng   =     190.701245 E_bond   =      31.246060 E_angle  =     123.917920 
E_dihed  =      30.937011 E_impro  =       0.530112 E_vdwl   =       7.300571 
E_coul   =      12.970474 E_long   =     -16.200902 Press    =    -327.754135
------------ Step            590 ----- CPU =     78.48163 (sec) -------------
TotEng   =     190.701245 KinEng   =       0.000000 Temp     =       0.000000 
PotEng   =     190.701245 E_bond   =      31.246060 E_angle  =     123.917920 
E_dihed  =      30.937011 E_impro  =       0.530112 E_vdwl   =       7.300571 
E_coul   =      12.970474 E_long   =     -16.200902 Press    =    -327.754135
------------ Step            600 ----- CPU =     80.09444 (sec) -------------
TotEng   =     190.701245 KinEng   =       0.000000 Temp     =       0.000000 
PotEng   =     190.701245 E_bond   =      31.246060 E_angle  =     123.917920 
E_dihed  =      30.937011 E_impro  =       0.530112 E_vdwl   =       7.300571 
E_coul   =      12.970474 E_long   =     -16.200902 Press    =    -327.754135
------------ Step            610 ----- CPU =     81.70911 (sec) -------------
TotEng   =     190.700661 KinEng   =       0.000000 Temp     =       0.000000 
PotEng   =     190.700661 E_bond   =      31.246060 E_angle  =     123.917920 
E_dihed  =      30.937011 E_impro  =       0.530112 E_vdwl   =       7.300000 
E_coul   =      12.970461 E_long   =     -16.200902 Press    =    -327.651118
------------ Step            620 ----- CPU =      83.3242 (sec) -------------
TotEng   =     190.700661 KinEng   =       0.000000 Temp     =       0.000000 
PotEng   =     190.700661 E_bond   =      31.246060 E_angle  =     123.917920 
E_dihed  =      30.937011 E_impro  =       0.530112 E_vdwl   =       7.300000 
E_coul   =      12.970461 E_long   =     -16.200902 Press    =    -327.651118
------------ Step            630 ----- CPU =     84.93983 (sec) -------------
TotEng   =     190.700661 KinEng   =       0.000000 Temp     =       0.000000 
PotEng   =     190.700661 E_bond   =      31.246060 E_angle  =     123.917920 
E_dihed  =      30.937011 E_impro  =       0.530112 E_vdwl   =       7.300000 
E_coul   =      12.970461 E_long   =     -16.200902 Press    =    -327.651118
------------ Step            640 ----- CPU =     86.55463 (sec) -------------
TotEng   =     190.700661 KinEng   =       0.000000 Temp     =       0.000000 
PotEng   =     190.700661 E_bond   =      31.246060 E_angle  =     123.917920 
E_dihed  =      30.937011 E_impro  =       0.530112 E_vdwl   =       7.300000 
E_coul   =      12.970461 E_long   =     -16.200902 Press    =    -327.651118
------------ Step            650 ----- CPU =      88.1687 (sec) -------------
TotEng   =     190.700661 KinEng   =       0.000000 Temp     =       0.000000 
PotEng   =     190.700661 E_bond   =      31.246060 E_angle  =     123.917920 
E_dihed  =      30.937011 E_impro  =       0.530112 E_vdwl   =       7.300000 
E_coul   =      12.970461 E_long   =     -16.200902 Press    =    -327.651118
------------ Step            660 ----- CPU =     89.78322 (sec) -------------
TotEng   =     190.700661 KinEng   =       0.000000 Temp     =       0.000000 
PotEng   =     190.700661 E_bond   =      31.246060 E_angle  =     123.917920 
E_dihed  =      30.937011 E_impro  =       0.530112 E_vdwl   =       7.300000 
E_coul   =      12.970461 E_long   =     -16.200902 Press    =    -327.651118
------------ Step            670 ----- CPU =     91.39637 (sec) -------------
TotEng   =     190.697551 KinEng   =       0.000000 Temp     =       0.000000 
PotEng   =     190.697551 E_bond   =      31.246060 E_angle  =     123.917920 
E_dihed  =      30.937011 E_impro  =       0.530112 E_vdwl   =       7.299114 
E_coul   =      12.968236 E_long   =     -16.200902 Press    =    -327.861498
------------ Step            680 ----- CPU =     93.01309 (sec) -------------
TotEng   =     190.697551 KinEng   =       0.000000 Temp     =       0.000000 
PotEng   =     190.697551 E_bond   =      31.246060 E_angle  =     123.917920 
E_dihed  =      30.937011 E_impro  =       0.530112 E_vdwl   =       7.299114 
E_coul   =      12.968236 E_long   =     -16.200902 Press    =    -327.861498
------------ Step            690 ----- CPU =     94.62876 (sec) -------------
TotEng   =     190.697551 KinEng   =       0.000000 Temp     =       0.000000 
PotEng   =     190.697551 E_bond   =      31.246060 E_angle  =     123.917920 
E_dihed  =      30.937011 E_impro  =       0.530112 E_vdwl   =       7.299114 
E_coul   =      12.968236 E_long   =     -16.200902 Press    =    -327.861498
------------ Step            700 ----- CPU =     96.24445 (sec) -------------
TotEng   =     190.697551 KinEng   =       0.000000 Temp     =       0.000000 
PotEng   =     190.697551 E_bond   =      31.246060 E_angle  =     123.917920 
E_dihed  =      30.937011 E_impro  =       0.530112 E_vdwl   =       7.299114 
E_coul   =      12.968236 E_long   =     -16.200902 Press    =    -327.861498
------------ Step            710 ----- CPU =     97.85851 (sec) -------------
TotEng   =     190.697551 KinEng   =       0.000000 Temp     =       0.000000 
PotEng   =     190.697551 E_bond   =      31.246060 E_angle  =     123.917920 
E_dihed  =      30.937011 E_impro  =       0.530112 E_vdwl   =       7.299114 
E_coul   =      12.968236 E_long   =     -16.200902 Press    =    -327.861498
------------ Step            720 ----- CPU =     99.47526 (sec) -------------
TotEng   =     190.697551 KinEng   =       0.000000 Temp     =       0.000000 
PotEng   =     190.697551 E_bond   =      31.246060 E_angle  =     123.917920 
E_dihed  =      30.937011 E_impro  =       0.530112 E_vdwl   =       7.299114 
E_coul   =      12.968236 E_long   =     -16.200902 Press    =    -327.861498
------------ Step            730 ----- CPU =     101.0899 (sec) -------------
TotEng   =     190.697551 KinEng   =       0.000000 Temp     =       0.000000 
PotEng   =     190.697551 E_bond   =      31.246060 E_angle  =     123.917920 
E_dihed  =      30.937011 E_impro  =       0.530112 E_vdwl   =       7.299114 
E_coul   =      12.968236 E_long   =     -16.200902 Press    =    -327.861498
------------ Step            740 ----- CPU =     102.7038 (sec) -------------
TotEng   =     190.697551 KinEng   =       0.000000 Temp     =       0.000000 
PotEng   =     190.697551 E_bond   =      31.246060 E_angle  =     123.917920 
E_dihed  =      30.937011 E_impro  =       0.530112 E_vdwl   =       7.299114 
E_coul   =      12.968236 E_long   =     -16.200902 Press    =    -327.861498
------------ Step            750 ----- CPU =     104.3179 (sec) -------------
TotEng   =     190.697551 KinEng   =       0.000000 Temp     =       0.000000 
PotEng   =     190.697551 E_bond   =      31.246060 E_angle  =     123.917920 
E_dihed  =      30.937011 E_impro  =       0.530112 E_vdwl   =       7.299114 
E_coul   =      12.968236 E_long   =     -16.200902 Press    =    -327.861498
------------ Step            760 ----- CPU =     105.9329 (sec) -------------
TotEng   =     190.697551 KinEng   =       0.000000 Temp     =       0.000000 
PotEng   =     190.697551 E_bond   =      31.246060 E_angle  =     123.917920 
E_dihed  =      30.937011 E_impro  =       0.530112 E_vdwl   =       7.299114 
E_coul   =      12.968236 E_long   =     -16.200902 Press    =    -327.861498
------------ Step            770 ----- CPU =     107.5478 (sec) -------------
TotEng   =     190.697551 KinEng   =       0.000000 Temp     =       0.000000 
PotEng   =     190.697551 E_bond   =      31.246060 E_angle  =     123.917920 
E_dihed  =      30.937011 E_impro  =       0.530112 E_vdwl   =       7.299114 
E_coul   =      12.968236 E_long   =     -16.200902 Press    =    -327.861498
------------ Step            780 ----- CPU =     109.1628 (sec) -------------
TotEng   =     190.697551 KinEng   =       0.000000 Temp     =       0.000000 
PotEng   =     190.697551 E_bond   =      31.246060 E_angle  =     123.917920 
E_dihed  =      30.937011 E_impro  =       0.530112 E_vdwl   =       7.299114 
E_coul   =      12.968236 E_long   =     -16.200902 Press    =    -327.861498
------------ Step            790 ----- CPU =     110.7769 (sec) -------------
TotEng   =     190.697551 KinEng   =       0.000000 Temp     =       0.000000 
PotEng   =     190.697551 E_bond   =      31.246060 E_angle  =     123.917920 
E_dihed  =      30.937011 E_impro  =       0.530112 E_vdwl   =       7.299114 
E_coul   =      12.968236 E_long   =     -16.200902 Press    =    -327.861498
------------ Step            800 ----- CPU =     112.3894 (sec) -------------
TotEng   =     190.697551 KinEng   =       0.000000 Temp     =       0.000000 
PotEng   =     190.697551 E_bond   =      31.246060 E_angle  =     123.917920 
E_dihed  =      30.937011 E_impro  =       0.530112 E_vdwl   =       7.299114 
E_coul   =      12.968236 E_long   =     -16.200902 Press    =    -327.861498
------------ Step            810 ----- CPU =     114.0049 (sec) -------------
TotEng   =     190.697528 KinEng   =       0.000000 Temp     =       0.000000 
PotEng   =     190.697528 E_bond   =      31.246060 E_angle  =     123.917920 
E_dihed  =      30.937011 E_impro  =       0.530112 E_vdwl   =       7.299098 
E_coul   =      12.968230 E_long   =     -16.200902 Press    =    -327.839861
------------ Step            820 ----- CPU =     115.6185 (sec) -------------
TotEng   =     190.697528 KinEng   =       0.000000 Temp     =       0.000000 
PotEng   =     190.697528 E_bond   =      31.246060 E_angle  =     123.917920 
E_dihed  =      30.937011 E_impro  =       0.530112 E_vdwl   =       7.299098 
E_coul   =      12.968230 E_long   =     -16.200902 Press    =    -327.839861
------------ Step            830 ----- CPU =     117.2336 (sec) -------------
TotEng   =     190.697528 KinEng   =       0.000000 Temp     =       0.000000 
PotEng   =     190.697528 E_bond   =      31.246060 E_angle  =     123.917920 
E_dihed  =      30.937011 E_impro  =       0.530112 E_vdwl   =       7.299098 
E_coul   =      12.968230 E_long   =     -16.200902 Press    =    -327.839861
------------ Step            840 ----- CPU =     118.8484 (sec) -------------
TotEng   =     190.697528 KinEng   =       0.000000 Temp     =       0.000000 
PotEng   =     190.697528 E_bond   =      31.246060 E_angle  =     123.917920 
E_dihed  =      30.937011 E_impro  =       0.530112 E_vdwl   =       7.299098 
E_coul   =      12.968230 E_long   =     -16.200902 Press    =    -327.839861
------------ Step            850 ----- CPU =      120.464 (sec) -------------
TotEng   =     190.697308 KinEng   =       0.000000 Temp     =       0.000000 
PotEng   =     190.697308 E_bond   =      31.246060 E_angle  =     123.917920 
E_dihed  =      30.937011 E_impro  =       0.530112 E_vdwl   =       7.298868 
E_coul   =      12.968240 E_long   =     -16.200902 Press    =    -327.844834
------------ Step            860 ----- CPU =     122.0788 (sec) -------------
TotEng   =     190.697308 KinEng   =       0.000000 Temp     =       0.000000 
PotEng   =     190.697308 E_bond   =      31.246060 E_angle  =     123.917920 
E_dihed  =      30.937011 E_impro  =       0.530112 E_vdwl   =       7.298868 
E_coul   =      12.968240 E_long   =     -16.200902 Press    =    -327.844834
------------ Step            870 ----- CPU =     123.6933 (sec) -------------
TotEng   =     190.697308 KinEng   =       0.000000 Temp     =       0.000000 
PotEng   =     190.697308 E_bond   =      31.246060 E_angle  =     123.917920 
E_dihed  =      30.937011 E_impro  =       0.530112 E_vdwl   =       7.298868 
E_coul   =      12.968240 E_long   =     -16.200902 Press    =    -327.844834
------------ Step            880 ----- CPU =     125.3081 (sec) -------------
TotEng   =     190.697308 KinEng   =       0.000000 Temp     =       0.000000 
PotEng   =     190.697308 E_bond   =      31.246060 E_angle  =     123.917920 
E_dihed  =      30.937011 E_impro  =       0.530112 E_vdwl   =       7.298868 
E_coul   =      12.968240 E_long   =     -16.200902 Press    =    -327.844834
------------ Step            890 ----- CPU =     126.9187 (sec) -------------
TotEng   =     190.422971 KinEng   =       0.000000 Temp     =       0.000000 
PotEng   =     190.422971 E_bond   =      31.246060 E_angle  =     123.917920 
E_dihed  =      30.937011 E_impro  =       0.530112 E_vdwl   =       6.967058 
E_coul   =      13.026008 E_long   =     -16.201198 Press    =    -310.219748
------------ Step            900 ----- CPU =     128.5252 (sec) -------------
TotEng   =     190.358785 KinEng   =       0.000000 Temp     =       0.000000 
PotEng   =     190.358785 E_bond   =      31.246060 E_angle  =     123.917920 
E_dihed  =      30.937011 E_impro  =       0.530112 E_vdwl   =       6.992932 
E_coul   =      12.935957 E_long   =     -16.201205 Press    =    -314.862464
------------ Step            910 ----- CPU =     130.1323 (sec) -------------
TotEng   =     190.331845 KinEng   =       0.000000 Temp     =       0.000000 
PotEng   =     190.331845 E_bond   =      31.246060 E_angle  =     123.917920 
E_dihed  =      30.937011 E_impro  =       0.530112 E_vdwl   =       6.963417 
E_coul   =      12.938510 E_long   =     -16.201184 Press    =    -304.147677
------------ Step            920 ----- CPU =     131.7388 (sec) -------------
TotEng   =     190.297385 KinEng   =       0.000000 Temp     =       0.000000 
PotEng   =     190.297385 E_bond   =      31.246060 E_angle  =     123.917920 
E_dihed  =      30.937011 E_impro  =       0.530112 E_vdwl   =       6.941187 
E_coul   =      12.926217 E_long   =     -16.201121 Press    =    -316.573053
------------ Step            930 ----- CPU =      133.346 (sec) -------------
TotEng   =     190.291024 KinEng   =       0.000000 Temp     =       0.000000 
PotEng   =     190.291024 E_bond   =      31.246060 E_angle  =     123.917920 
E_dihed  =      30.937011 E_impro  =       0.530112 E_vdwl   =       6.935352 
E_coul   =      12.925694 E_long   =     -16.201123 Press    =    -316.481150
------------ Step            940 ----- CPU =     134.9518 (sec) -------------
TotEng   =     190.287076 KinEng   =       0.000000 Temp     =       0.000000 
PotEng   =     190.287076 E_bond   =      31.246060 E_angle  =     123.917920 
E_dihed  =      30.937011 E_impro  =       0.530112 E_vdwl   =       6.938240 
E_coul   =      12.918854 E_long   =     -16.201120 Press    =    -316.798080
------------ Step            950 ----- CPU =     136.5587 (sec) -------------
TotEng   =     190.287076 KinEng   =       0.000000 Temp     =       0.000000 
PotEng   =     190.287076 E_bond   =      31.246060 E_angle  =     123.917920 
E_dihed  =      30.937011 E_impro  =       0.530112 E_vdwl   =       6.938240 
E_coul   =      12.918854 E_long   =     -16.201120 Press    =    -316.798080
------------ Step            960 ----- CPU =     138.1632 (sec) -------------
TotEng   =     190.287076 KinEng   =       0.000000 Temp     =       0.000000 
PotEng   =     190.287076 E_bond   =      31.246060 E_angle  =     123.917920 
E_dihed  =      30.937011 E_impro  =       0.530112 E_vdwl   =       6.938240 
E_coul   =      12.918854 E_long   =     -16.201120 Press    =    -316.798080
------------ Step            970 ----- CPU =       139.77 (sec) -------------
TotEng   =     190.287076 KinEng   =       0.000000 Temp     =       0.000000 
PotEng   =     190.287076 E_bond   =      31.246060 E_angle  =     123.917920 
E_dihed  =      30.937011 E_impro  =       0.530112 E_vdwl   =       6.938240 
E_coul   =      12.918854 E_long   =     -16.201120 Press    =    -316.798080
------------ Step            980 ----- CPU =      141.377 (sec) -------------
TotEng   =     190.285156 KinEng   =       0.000000 Temp     =       0.000000 
PotEng   =     190.285156 E_bond   =      31.246060 E_angle  =     123.917920 
E_dihed  =      30.937011 E_impro  =       0.530112 E_vdwl   =       6.939738 
E_coul   =      12.915436 E_long   =     -16.201119 Press    =    -317.134739
------------ Step            990 ----- CPU =     142.9852 (sec) -------------
TotEng   =     190.285156 KinEng   =       0.000000 Temp     =       0.000000 
PotEng   =     190.285156 E_bond   =      31.246060 E_angle  =     123.917920 
E_dihed  =      30.937011 E_impro  =       0.530112 E_vdwl   =       6.939738 
E_coul   =      12.915436 E_long   =     -16.201119 Press    =    -317.134739
------------ Step           1000 ----- CPU =      144.592 (sec) -------------
TotEng   =     190.285156 KinEng   =       0.000000 Temp     =       0.000000 
PotEng   =     190.285156 E_bond   =      31.246060 E_angle  =     123.917920 
E_dihed  =      30.937011 E_impro  =       0.530112 E_vdwl   =       6.939738 
E_coul   =      12.915436 E_long   =     -16.201119 Press    =    -317.134739
------------ Step           1010 ----- CPU =     146.1766 (sec) -------------
TotEng   =     190.282508 KinEng   =       0.000000 Temp     =       0.000000 
PotEng   =     190.282508 E_bond   =      31.246060 E_angle  =     123.917920 
E_dihed  =      30.937011 E_impro  =       0.530112 E_vdwl   =       6.938842 
E_coul   =      12.913685 E_long   =     -16.201120 Press    =    -316.609729
------------ Step           1020 ----- CPU =     147.7589 (sec) -------------
TotEng   =     190.282508 KinEng   =       0.000000 Temp     =       0.000000 
PotEng   =     190.282508 E_bond   =      31.246060 E_angle  =     123.917920 
E_dihed  =      30.937011 E_impro  =       0.530112 E_vdwl   =       6.938842 
E_coul   =      12.913685 E_long   =     -16.201120 Press    =    -316.609729
------------ Step           1030 ----- CPU =     149.3411 (sec) -------------
TotEng   =     190.282508 KinEng   =       0.000000 Temp     =       0.000000 
PotEng   =     190.282508 E_bond   =      31.246060 E_angle  =     123.917920 
E_dihed  =      30.937011 E_impro  =       0.530112 E_vdwl   =       6.938842 
E_coul   =      12.913685 E_long   =     -16.201120 Press    =    -316.609729
------------ Step           1040 ----- CPU =     150.9233 (sec) -------------
TotEng   =     190.281825 KinEng   =       0.000000 Temp     =       0.000000 
PotEng   =     190.281825 E_bond   =      31.246060 E_angle  =     123.917920 
E_dihed  =      30.937011 E_impro  =       0.530112 E_vdwl   =       6.938268 
E_coul   =      12.913577 E_long   =     -16.201121 Press    =    -316.489542
------------ Step           1050 ----- CPU =      152.506 (sec) -------------
TotEng   =     190.281825 KinEng   =       0.000000 Temp     =       0.000000 
PotEng   =     190.281825 E_bond   =      31.246060 E_angle  =     123.917920 
E_dihed  =      30.937011 E_impro  =       0.530112 E_vdwl   =       6.938268 
E_coul   =      12.913577 E_long   =     -16.201121 Press    =    -316.489542
------------ Step           1060 ----- CPU =     154.0882 (sec) -------------
TotEng   =     190.281825 KinEng   =       0.000000 Temp     =       0.000000 
PotEng   =     190.281825 E_bond   =      31.246060 E_angle  =     123.917920 
E_dihed  =      30.937011 E_impro  =       0.530112 E_vdwl   =       6.938268 
E_coul   =      12.913577 E_long   =     -16.201121 Press    =    -316.489542
------------ Step           1070 ----- CPU =     155.6694 (sec) -------------
TotEng   =     190.279193 KinEng   =       0.000000 Temp     =       0.000000 
PotEng   =     190.279193 E_bond   =      31.246060 E_angle  =     123.917920 
E_dihed  =      30.937011 E_impro  =       0.530112 E_vdwl   =       6.938123 
E_coul   =      12.911088 E_long   =     -16.201121 Press    =    -315.877936
------------ Step           1080 ----- CPU =     157.2518 (sec) -------------
TotEng   =     190.279193 KinEng   =       0.000000 Temp     =       0.000000 
PotEng   =     190.279193 E_bond   =      31.246060 E_angle  =     123.917920 
E_dihed  =      30.937011 E_impro  =       0.530112 E_vdwl   =       6.938123 
E_coul   =      12.911088 E_long   =     -16.201121 Press    =    -315.877936
------------ Step           1090 ----- CPU =     158.8329 (sec) -------------
TotEng   =     190.278636 KinEng   =       0.000000 Temp     =       0.000000 
PotEng   =     190.278636 E_bond   =      31.246060 E_angle  =     123.917920 
E_dihed  =      30.937011 E_impro  =       0.530112 E_vdwl   =       6.937607 
E_coul   =      12.911048 E_long   =     -16.201121 Press    =    -315.736552
------------ Step           1100 ----- CPU =     160.4158 (sec) -------------
TotEng   =     190.278636 KinEng   =       0.000000 Temp     =       0.000000 
PotEng   =     190.278636 E_bond   =      31.246060 E_angle  =     123.917920 
E_dihed  =      30.937011 E_impro  =       0.530112 E_vdwl   =       6.937607 
E_coul   =      12.911048 E_long   =     -16.201121 Press    =    -315.736552
------------ Step           1105 ----- CPU =     161.2069 (sec) -------------
TotEng   =     190.278552 KinEng   =       0.000000 Temp     =       0.000000 
PotEng   =     190.278552 E_bond   =      31.246060 E_angle  =     123.917920 
E_dihed  =      30.937011 E_impro  =       0.530112 E_vdwl   =       6.937517 
E_coul   =      12.911053 E_long   =     -16.201121 Press    =    -315.613296
Loop time of 161.207 on 1 procs for 1000 steps with 122 atoms

Performance: 0.268 ns/day, 89.559 hours/ns, 6.203 timesteps/s, 756.791 atom-step/s
99.5% CPU use with 1 MPI tasks x 1 OpenMP threads

MPI task timing breakdown:
Section |  min time  |  avg time  |  max time  |%varavg| %total
---------------------------------------------------------------
Pair    | 0.20033    | 0.20033    | 0.20033    |   0.0 |  0.12
Bond    | 0.031662   | 0.031662   | 0.031662   |   0.0 |  0.02
Kspace  | 0.014627   | 0.014627   | 0.014627   |   0.0 |  0.01
Neigh   | 1.2237     | 1.2237     | 1.2237     |   0.0 |  0.76
Comm    | 0.029493   | 0.029493   | 0.029493   |   0.0 |  0.02
Output  | 0.027183   | 0.027183   | 0.027183   |   0.0 |  0.02
Modify  | 159.68     | 159.68     | 159.68     |   0.0 | 99.05
Other   |            | 0.003971   |            |       |  0.00

Nlocal:            122 ave         122 max         122 min
Histogram: 1 0 0 0 0 0 0 0 0 0
Nghost:           1875 ave        1875 max        1875 min
Histogram: 1 0 0 0 0 0 0 0 0 0
Neighs:          14311 ave       14311 max       14311 min
Histogram: 1 0 0 0 0 0 0 0 0 0

Total # of neighbors = 14311
Ave neighs/atom = 117.30328
Ave special neighs/atom = 10.967213
Neighbor list builds = 102000
Dangerous builds = 0
unfix                1
unfix                4
ERROR: Could not find fix ID 4 to delete (src/modify.cpp:1059)
Last command: unfix                4
