ITEM: TIMESTEP
110
ITEM: NUMBER OF ATOMS
122
ITEM: BOX BOUNDS pp pp pp
0.0000000000000000e+00 2.0000000000000000e+01
0.0000000000000000e+00 2.0000000000000000e+01
0.0000000000000000e+00 2.0000000000000000e+01
ITEM: ATOMS id type xu yu zu vx vy vz
1 1 5.25837 8.39616 3.73642 0 0 0
2 1 6.67415 8.67543 3.25257 0 0 0
3 1 7.52842 8.51372 4.50548 0 0 0
4 2 6.83045 7.54617 5.37335 0 0 0
5 3 7.27037 7.59457 6.72699 0 0 0
6 3 6.43971 7.24801 7.79737 0 0 0
7 3 6.8648 7.35567 9.1218 0 0 0
8 3 8.13427 7.83195 9.44147 0 0 0
9 3 8.51579 8.01835 10.7853 0 0 0
10 4 7.89716 7.3482 11.6399 0 0 0
11 3 9.50484 8.89808 11.2619 0 0 0
28 3 10.0693 8.70553 12.5269 0 0 0
29 3 9.00297 8.04119 8.37582 0 0 0
30 3 8.58803 7.91974 7.05691 0 0 0
31 1 5.42114 7.94817 5.1925 0 0 0
33 6 4.80953 7.60418 3.13657 0 0 0
36 6 8.5139 8.15647 4.20692 0 0 0
38 6 5.49285 6.90709 7.6395 0 0 0
39 6 6.20543 7.10291 9.85728 0 0 0
65 6 9.982 8.26247 8.54244 0 0 0
66 6 9.29978 8.07105 6.34697 0 0 0
67 6 5.17892 8.79193 5.83922 0 0 0
68 6 4.7431 7.1161 5.38563 0 0 0
70 2 -0.894307 -1.59092 6.32621 0 0 0
84 3 1.9568 -2.45138 0.712358 0 0 0
87 3 3.22198 -2.67215 1.61951 0 0 0
114 5 1.38972 -1.80571 1.37835 0 0 0
119 5 3.49929 -1.77034 2.17542 0 0 0
120 5 4.12933 -3.13658 1.21014 0 0 0
121 5 2.88281 -3.37669 2.37765 0 0 0
122 6 1.27726 -1.19181 5.26762 0 0 0
69 1 0.802667 -1.97972 4.92813 0 0 0
88 4 -0.427629 -2.29227 5.39781 0 0 0
107 5 -1.98757 -2.27109 3.44651 0 0 0
12 3 9.91662 10.0311 10.5572 0 0 0
13 3 10.892 10.8809 11.0551 0 0 0
14 3 11.4839 10.6582 12.2887 0 0 0
32 6 4.65691 9.30265 3.68247 0 0 0
37 6 7.60137 9.4837 4.99948 0 0 0
40 6 9.48372 10.2834 9.67231 0 0 0
41 6 11.172 11.6951 10.5085 0 0 0
86 3 -1.09997 -3.51849 4.925 0 0 0
98 5 -2.04874 -4.35388 2.0381 0 0 0
117 5 -0.241671 -4.13546 4.61913 0 0 0
118 5 -1.50242 -3.94642 5.85072 0 0 0
80 3 -2.29021 -3.22392 3.89927 0 0 0
115 5 1.48818 -3.43768 0.740742 0 0 0
62 7 21.8469 13.6228 24.3262 0 0 0
15 5 12.6839 11.8352 12.7492 0 0 0
26 5 21.1042 12.5297 24.0043 0 0 0
73 3 -4.1154 -3.94502 1.72966 0 0 0
75 3 -2.87051 -4.24564 2.75807 0 0 0
90 5 -5.70183 -5.49994 1.64457 0 0 0
93 5 -4.85261 -3.24489 2.13311 0 0 0
94 5 -3.61431 -3.41021 0.945731 0 0 0
97 5 -2.99953 -5.21225 3.26316 0 0 0
108 5 -3.06456 -3.01768 4.64674 0 0 0
71 3 -5.00328 -5.04443 0.932925 0 0 0
27 3 11.0466 9.56092 13.0321 0 0 0
34 6 6.96519 7.93929 2.50338 0 0 0
63 6 11.4228 9.36004 13.9559 0 0 0
64 6 9.78395 7.91502 13.1046 0 0 0
76 3 -0.764652 -1.20212 -1.41081 0 0 0
77 3 0.753887 -1.63498 -1.77445 0 0 0
81 3 1.97096 -1.8453 -0.781771 0 0 0
99 5 -0.709474 -0.423662 -0.646178 0 0 0
100 5 -1.14475 -2.11982 -0.978849 0 0 0
101 5 1.26192 -0.916016 -2.42846 0 0 0
102 5 0.74429 -2.58054 -2.3366 0 0 0
109 5 2.53843 -0.903824 -0.831096 0 0 0
110 5 2.52281 -2.53145 -1.43232 0 0 0
43 6 13.8803 10.0383 13.8072 0 0 0
47 6 15.6859 10.2627 15.5836 0 0 0
51 6 17.4724 10.4665 17.355 0 0 0
55 6 19.2582 10.7303 19.2058 0 0 0
59 6 20.5488 11.04 21.4226 0 0 0
78 3 -1.88725 -0.65369 -2.45119 0 0 0
82 3 -3.45029 -0.449067 -2.1631 0 0 0
83 4 -4.91045 -2.33795 -3.35069 0 0 0
85 4 -4.4429 -1.03051 -3.11784 0 0 0
103 5 -1.63569 0.395479 -2.63853 0 0 0
104 5 -1.84036 -1.14818 -3.42865 0 0 0
111 5 -3.86684 -0.441571 -1.14612 0 0 0
112 5 -3.55448 0.605108 -2.42671 0 0 0
113 5 -5.34513 -2.40956 -4.28396 0 0 0
116 5 -4.93097 -0.347617 -3.7254 0 0 0
35 6 6.76245 9.68577 2.85226 0 0 0
92 5 -7.03579 -4.55841 0.229363 0 0 0
16 1 13.5323 11.0245 14.115 0 0 0
17 1 14.7352 11.8798 14.5311 0 0 0
18 1 15.3618 11.281 15.7965 0 0 0
19 1 16.564 12.1027 16.279 0 0 0
20 1 17.1248 11.4785 17.5639 0 0 0
21 1 18.2898 12.3142 18.1105 0 0 0
22 1 18.7954 11.6937 19.4205 0 0 0
23 1 19.8181 12.6017 20.1181 0 0 0
24 1 20.1324 12.0435 21.5135 0 0 0
25 1 21.1336 12.9384 22.2513 0 0 0
42 6 12.8521 10.9394 14.9615 0 0 0
44 6 15.4671 11.8937 13.7227 0 0 0
45 6 14.3989 12.8974 14.7314 0 0 0
46 6 14.6098 11.2612 16.5849 0 0 0
48 6 17.3366 12.1094 15.5103 0 0 0
49 6 16.2443 13.1246 16.4833 0 0 0
50 6 16.3328 11.4377 18.3119 0 0 0
52 6 19.0991 12.3374 17.3803 0 0 0
53 6 17.9405 13.3294 18.2975 0 0 0
54 6 17.9479 11.5421 20.0878 0 0 0
56 6 20.7327 12.6461 19.5266 0 0 0
57 6 19.4024 13.6043 20.2192 0 0 0
58 6 19.2144 11.9982 22.0995 0 0 0
60 6 22.1357 12.7795 21.8525 0 0 0
61 6 20.8554 13.985 22.1332 0 0 0
72 3 -6.05087 -4.75821 -0.213737 0 0 0
74 3 -5.99728 -3.73663 -1.41508 0 0 0
79 3 -4.87763 -3.59519 -2.54201 0 0 0
89 5 -4.44138 -5.87164 0.474838 0 0 0
91 5 -6.22995 -5.76442 -0.607003 0 0 0
95 5 -6.30936 -2.76384 -1.03403 0 0 0
96 5 -6.88424 -4.08585 -1.94771 0 0 0
105 5 -5.08607 -4.33929 -3.31174 0 0 0
106 5 -3.86065 -3.81991 -2.25088 0 0 0
ITEM: TIMESTEP
120
ITEM: NUMBER OF ATOMS
122
ITEM: BOX BOUNDS pp pp pp
0.0000000000000000e+00 2.0000000000000000e+01
0.0000000000000000e+00 2.0000000000000000e+01
0.0000000000000000e+00 2.0000000000000000e+01
ITEM: ATOMS id type xu yu zu vx vy vz
1 1 6.07393 8.37908 6.64635 0 0 0
2 1 7.4346 8.75775 6.07917 0 0 0
3 1 8.38242 8.59947 7.26335 0 0 0
4 2 7.80171 7.56153 8.13626 0 0 0
5 3 8.3323 7.5851 9.45768 0 0 0
6 3 7.59933 7.15146 10.567 0 0 0
7 3 8.10982 7.23436 11.8627 0 0 0
8 3 9.37034 7.77128 12.1145 0 0 0
9 3 9.83444 7.92949 13.4358 0 0 0
10 4 9.31538 7.19334 14.3023 0 0 0
11 3 10.8044 8.84681 13.8797 0 0 0
28 3 11.4661 8.64051 15.0944 0 0 0
29 3 10.1491 8.06995 11.0017 0 0 0
30 3 9.64989 7.97367 9.71025 0 0 0
31 1 6.36312 7.88755 8.06837 0 0 0
33 6 5.62852 7.58521 6.04644 0 0 0
36 6 9.36273 8.3113 6.88402 0 0 0
38 6 6.66402 6.76229 10.46 0 0 0
39 6 7.51874 6.91668 12.6304 0 0 0
65 6 11.1237 8.3413 11.1103 0 0 0
66 6 10.3005 8.19224 8.96034 0 0 0
67 6 6.12065 8.69126 8.76415 0 0 0
68 6 5.74736 7.01097 8.27288 0 0 0
70 2 -0.634772 -1.94217 6.46885 0 0 0
84 3 2.01876 -2.55095 0.726661 0 0 0
87 3 3.30985 -2.83264 1.57876 0 0 0
114 5 1.4827 -1.93312 1.44287 0 0 0
119 5 3.61755 -1.96358 2.16975 0 0 0
120 5 4.19685 -3.28656 1.11645 0 0 0
121 5 2.98609 -3.5706 2.31142 0 0 0
122 6 1.50619 -1.516 5.35968 0 0 0
69 1 1.00998 -2.27992 4.99704 0 0 0
88 4 -0.208419 -2.60109 5.49126 0 0 0
107 5 -1.83104 -2.4622 3.59673 0 0 0
12 3 11.1024 10.0272 13.1957 0 0 0
13 3 12.0618 10.9131 13.6606 0 0 0
14 3 12.7504 10.6795 14.8408 0 0 0
32 6 5.42097 9.25053 6.6707 0 0 0
37 6 8.43616 9.55304 7.79063 0 0 0
40 6 10.5951 10.2866 12.3534 0 0 0
41 6 12.2573 11.7618 13.1301 0 0 0
86 3 -0.912617 -3.79358 4.98011 0 0 0
98 5 -1.96685 -4.46998 2.08818 0 0 0
117 5 -0.0733307 -4.40451 4.61507 0 0 0
118 5 -1.29033 -4.26304 5.89607 0 0 0
80 3 -2.1317 -3.43308 4.01085 0 0 0
115 5 1.53786 -3.53171 0.721044 0 0 0
62 7 23.7537 13.7913 26.2569 0 0 0
15 5 13.9128 11.9061 15.2665 0 0 0
26 5 23.0518 12.6697 25.9417 0 0 0
73 3 -4.03671 -4.02121 1.86994 0 0 0
75 3 -2.76302 -4.38854 2.83974 0 0 0
90 5 -5.64622 -5.55063 1.75982 0 0 0
93 5 -4.75066 -3.33363 2.33251 0 0 0
94 5 -3.55431 -3.45337 1.0976 0 0 0
97 5 -2.88864 -5.37791 3.2996 0 0 0
108 5 -2.87823 -3.25573 4.79322 0 0 0
71 3 -4.96519 -5.06804 1.04904 0 0 0
27 3 12.4277 9.5318 15.5666 0 0 0
34 6 7.71253 8.06804 5.28233 0 0 0
63 6 12.8784 9.31893 16.4536 0 0 0
64 6 11.2662 7.81388 15.6572 0 0 0
76 3 -0.753467 -1.16298 -1.23883 0 0 0
77 3 0.746269 -1.59505 -1.67434 0 0 0
81 3 1.99223 -1.87006 -0.734727 0 0 0
99 5 -0.662606 -0.425035 -0.438275 0 0 0
100 5 -1.13172 -2.09678 -0.841109 0 0 0
101 5 1.24239 -0.849994 -2.30797 0 0 0
102 5 0.705311 -2.51069 -2.2827 0 0 0
109 5 2.57061 -0.934186 -0.755573 0 0 0
110 5 2.51302 -2.52892 -1.43705 0 0 0
43 6 15.2781 10.1436 16.166 0 0 0
47 6 17.1888 10.4063 17.8232 0 0 0
51 6 19.0814 10.6474 19.4758 0 0 0
55 6 20.9755 10.9455 21.2101 0 0 0
59 6 22.3996 11.2471 23.3447 0 0 0
78 3 -1.90195 -0.549035 -2.21219 0 0 0
82 3 -3.45176 -0.340524 -1.86209 0 0 0
83 4 -4.97578 -2.14905 -3.09372 0 0 0
85 4 -4.483 -0.860815 -2.81116 0 0 0
103 5 -1.64233 0.505189 -2.35483 0 0 0
104 5 -1.89389 -0.993831 -3.21431 0 0 0
111 5 -3.83462 -0.379623 -0.832668 0 0 0
112 5 -3.55009 0.726841 -2.06871 0 0 0
113 5 -5.44175 -2.168 -4.01436 0 0 0
116 5 -4.98132 -0.14217 -3.36695 0 0 0
35 6 7.43856 9.78567 5.71558 0 0 0
92 5 -7.01283 -4.52257 0.439147 0 0 0
16 1 14.8986 11.0959 16.5371 0 0 0
17 1 16.0787 12.0034 16.905 0 0 0
18 1 16.8247 11.3955 18.0993 0 0 0
19 1 18.0106 12.267 18.5322 0 0 0
20 1 18.6939 11.6292 19.7492 0 0 0
21 1 19.8465 12.5102 20.2491 0 0 0
22 1 20.4764 11.8719 21.4951 0 0 0
23 1 21.4938 12.8111 22.1581 0 0 0
24 1 21.9358 12.2206 23.5049 0 0 0
25 1 22.9353 13.1441 24.209 0 0 0
42 6 14.2853 10.9401 17.4236 0 0 0
44 6 16.75 12.0898 16.05 0 0 0
45 6 15.7015 12.9917 17.1693 0 0 0
46 6 16.1323 11.3028 18.9355 0 0 0
48 6 18.7257 12.3471 17.7136 0 0 0
49 6 17.6501 13.2603 18.7995 0 0 0
50 6 17.9599 11.5147 20.547 0 0 0
52 6 20.5999 12.6073 19.4671 0 0 0
53 6 19.4556 13.4957 20.5009 0 0 0
54 6 19.6876 11.6466 22.2117 0 0 0
56 6 22.3607 12.9304 21.5081 0 0 0
57 6 21.0314 13.7835 22.3284 0 0 0
58 6 21.0651 12.1005 24.1496 0 0 0
60 6 23.9142 13.0585 23.7367 0 0 0
61 6 22.592 14.1765 24.1531 0 0 0
72 3 -6.0458 -4.71145 -0.0461172 0 0 0
74 3 -6.01763 -3.63096 -1.19567 0 0 0
79 3 -4.93369 -3.446 -2.35086 0 0 0
89 5 -4.42999 -5.87763 0.531395 0 0 0
91 5 -6.25142 -5.69419 -0.483293 0 0 0
95 5 -6.3037 -2.67508 -0.755955 0 0 0
96 5 -6.92626 -3.94203 -1.71524 0 0 0
105 5 -5.17741 -4.14754 -3.14964 0 0 0
106 5 -3.91088 -3.69741 -2.10555 0 0 0
ITEM: TIMESTEP
130
ITEM: NUMBER OF ATOMS
122
ITEM: BOX BOUNDS pp pp pp
0.0000000000000000e+00 2.0000000000000000e+01
0.0000000000000000e+00 2.0000000000000000e+01
0.0000000000000000e+00 2.0000000000000000e+01
ITEM: ATOMS id type xu yu zu vx vy vz
1 1 5.68279 8.48012 6.98481 0 0 0
2 1 7.00999 8.88849 6.36166 0 0 0
3 1 8.0158 8.71543 7.49484 0 0 0
4 2 7.48993 7.65089 8.37047 0 0 0
5 3 8.08359 7.6513 9.665 0 0 0
6 3 7.41021 7.18362 10.798 0 0 0
7 3 7.98188 7.24368 12.0692 0 0 0
8 3 9.2469 7.79052 12.2724 0 0 0
9 3 9.77262 7.92471 13.5731 0 0 0
10 4 9.30456 7.16277 14.4463 0 0 0
11 3 10.7524 8.84385 13.9908 0 0 0
28 3 11.4744 8.61853 15.1671 0 0 0
29 3 9.9674 8.12393 11.1306 0 0 0
30 3 9.40735 8.05055 9.86273 0 0 0
31 1 6.04611 7.96032 8.3795 0 0 0
33 6 5.21795 7.69446 6.38885 0 0 0
36 6 8.9798 8.44819 7.06218 0 0 0
38 6 6.47533 6.78529 10.7272 0 0 0
39 6 7.43234 6.90139 12.8569 0 0 0
65 6 10.9429 8.40494 11.1983 0 0 0
66 6 10.0184 8.2941 9.08761 0 0 0
67 6 5.82846 8.74504 9.10455 0 0 0
68 6 5.45102 7.07171 8.5931 0 0 0
70 2 -0.336534 -1.94193 6.18853 0 0 0
84 3 2.09913 -2.6759 0.365008 0 0 0
87 3 3.41572 -2.96498 1.17456 0 0 0
114 5 1.5985 -2.03941 1.09045 0 0 0
119 5 3.75744 -2.09221 1.74086 0 0 0
120 5 4.27863 -3.43931 0.687768 0 0 0
121 5 3.10757 -3.68701 1.92948 0 0 0
122 6 1.76923 -1.56525 4.9971 0 0 0
69 1 1.24894 -2.32664 4.66413 0 0 0
88 4 0.0444585 -2.62164 5.20646 0 0 0
107 5 -1.64307 -2.4855 3.3693 0 0 0
12 3 11.0034 10.043 13.3207 0 0 0
13 3 11.9741 10.9301 13.7592 0 0 0
14 3 12.7216 10.6786 14.8992 0 0 0
32 6 5.02187 9.34256 7.06072 0 0 0
37 6 8.08412 9.65747 8.04083 0 0 0
40 6 10.453 10.3149 12.5101 0 0 0
41 6 12.1339 11.793 13.2397 0 0 0
86 3 -0.695414 -3.81047 4.73904 0 0 0
98 5 -1.86307 -4.51286 1.89731 0 0 0
117 5 0.120969 -4.4396 4.35355 0 0 0
118 5 -1.04687 -4.26054 5.67497 0 0 0
80 3 -1.94309 -3.44542 3.80864 0 0 0
115 5 1.60376 -3.64908 0.391533 0 0 0
62 7 24.2286 13.6698 25.841 0 0 0
15 5 13.8892 11.9098 15.2967 0 0 0
26 5 23.5252 12.5469 25.5341 0 0 0
73 3 -3.93252 -4.03538 1.74647 0 0 0
75 3 -2.63036 -4.40809 2.67555 0 0 0
90 5 -5.5676 -5.54117 1.7173 0 0 0
93 5 -4.619 -3.33012 2.22376 0 0 0
94 5 -3.46982 -3.48647 0.9488 0 0 0
97 5 -2.7541 -5.38854 3.15462 0 0 0
108 5 -2.65823 -3.24508 4.61443 0 0 0
71 3 -4.90548 -5.07965 0.975338 0 0 0
27 3 12.4476 9.51092 15.6129 0 0 0
34 6 7.25686 8.22045 5.53662 0 0 0
63 6 12.9431 9.28376 16.4721 0 0 0
64 6 11.3115 7.77698 15.7197 0 0 0
76 3 -0.721028 -1.27421 -1.52094 0 0 0
77 3 0.755437 -1.73578 -2.0032 0 0 0
81 3 2.03018 -2.01621 -1.10469 0 0 0
99 5 -0.590392 -0.526092 -0.735476 0 0 0
100 5 -1.09862 -2.19612 -1.09577 0 0 0
101 5 1.23949 -1.00786 -2.66544 0 0 0
102 5 0.678933 -2.65951 -2.59569 0 0 0
109 5 2.62134 -1.0898 -1.16046 0 0 0
110 5 2.51545 -2.69328 -1.81509 0 0 0
43 6 15.3165 10.1447 16.0884 0 0 0
47 6 17.3021 10.3939 17.6572 0 0 0
51 6 19.2696 10.6213 19.2219 0 0 0
55 6 21.2419 10.9039 20.8694 0 0 0
59 6 22.7643 11.1751 22.9394 0 0 0
78 3 -1.89452 -0.656932 -2.46182 0 0 0
82 3 -3.42743 -0.419358 -2.05971 0 0 0
83 4 -5.02164 -2.22198 -3.20835 0 0 0
85 4 -4.49983 -0.93751 -2.96324 0 0 0
103 5 -1.62449 0.390943 -2.62969 0 0 0
104 5 -1.92919 -1.11646 -3.4567 0 0 0
111 5 -3.77351 -0.437415 -1.01677 0 0 0
112 5 -3.51719 0.646253 -2.2789 0 0 0
113 5 -5.52069 -2.24723 -4.11133 0 0 0
116 5 -5.00705 -0.219479 -3.51172 0 0 0
35 6 6.9846 9.92431 6.02216 0 0 0
92 5 -6.96538 -4.51159 0.430866 0 0 0
16 1 14.9446 11.0835 16.4992 0 0 0
17 1 16.1306 11.9973 16.8308 0 0 0
18 1 16.9405 11.3719 17.9734 0 0 0
19 1 18.1359 12.2483 18.3687 0 0 0
20 1 18.8846 11.5917 19.5363 0 0 0
21 1 20.0499 12.4756 20.0004 0 0 0
22 1 20.7467 11.8173 21.1995 0 0 0
23 1 21.7842 12.754 21.8343 0 0 0
24 1 22.2976 12.139 23.1442 0 0 0
25 1 23.3195 13.0587 23.8205 0 0 0
42 6 14.3767 10.9002 17.4104 0 0 0
44 6 16.7587 12.1113 15.9467 0 0 0
45 6 15.7554 12.9746 17.1358 0 0 0
46 6 16.2905 11.2518 18.8396 0 0 0
48 6 18.8096 12.3557 17.5187 0 0 0
49 6 17.7775 13.2307 18.6759 0 0 0
50 6 18.1915 11.4502 20.3657 0 0 0
52 6 20.7635 12.5998 19.1855 0 0 0
53 6 19.6605 13.4503 20.2935 0 0 0
54 6 19.9961 11.5662 21.9478 0 0 0
56 6 22.6172 12.8988 21.1462 0 0 0
57 6 21.3196 13.7165 22.0491 0 0 0
58 6 21.4606 11.9934 23.8271 0 0 0
60 6 24.2752 12.9961 23.2997 0 0 0
61 6 22.9621 14.0878 23.8051 0 0 0
72 3 -6.01937 -4.72251 -0.0857544 0 0 0
74 3 -6.01648 -3.65958 -1.2519 0 0 0
79 3 -4.9722 -3.50838 -2.44781 0 0 0
89 5 -4.40142 -5.90494 0.451264 0 0 0
91 5 -6.25525 -5.70826 -0.500281 0 0 0
95 5 -6.27224 -2.69303 -0.81683 0 0 0
96 5 -6.94778 -3.96414 -1.73383 0 0 0
105 5 -5.25497 -4.21771 -3.22658 0 0 0
106 5 -3.94509 -3.77195 -2.23546 0 0 0
ITEM: TIMESTEP
140
ITEM: NUMBER OF ATOMS
122
ITEM: BOX BOUNDS pp pp pp
0.0000000000000000e+00 2.0000000000000000e+01
0.0000000000000000e+00 2.0000000000000000e+01
0.0000000000000000e+00 2.0000000000000000e+01
ITEM: ATOMS id type xu yu zu vx vy vz
1 1 5.69066 8.36323 7.00106 0 0 0
2 1 7.01945 8.75915 6.37331 0 0 0
3 1 8.02343 8.60218 7.51045 0 0 0
4 2 7.49438 7.55265 8.40213 0 0 0
5 3 8.08634 7.57246 9.69728 0 0 0
6 3 7.41056 7.12407 10.8366 0 0 0
7 3 7.98068 7.20319 12.1075 0 0 0
8 3 9.24647 7.75079 12.3037 0 0 0
9 3 9.77073 7.90459 13.6028 0 0 0
10 4 9.30007 7.15747 14.4873 0 0 0
11 3 10.7517 8.82838 14.0072 0 0 0
28 3 11.4718 8.62036 15.188 0 0 0
29 3 9.96912 8.0647 11.1577 0 0 0
30 3 9.41059 7.97228 9.89045 0 0 0
31 1 6.05114 7.86492 8.40431 0 0 0
33 6 5.22509 7.56911 6.41701 0 0 0
36 6 8.98749 8.32629 7.08337 0 0 0
38 6 6.47502 6.72644 10.7709 0 0 0
39 6 7.42944 6.87448 12.8998 0 0 0
65 6 10.9451 8.3449 11.2223 0 0 0
66 6 10.0231 8.20236 9.11239 0 0 0
67 6 5.83404 8.66144 9.11653 0 0 0
68 6 5.45407 6.98094 8.63117 0 0 0
70 2 -0.353023 -1.5991 5.82142 0 0 0
84 3 2.04327 -2.59532 0.0205689 0 0 0
87 3 3.36979 -2.82854 0.831925 0 0 0
114 5 1.5411 -1.92913 0.717738 0 0 0
119 5 3.70579 -1.92471 1.35096 0 0 0
120 5 4.23422 -3.31673 0.361829 0 0 0
121 5 3.07642 -3.51541 1.62459 0 0 0
122 6 1.73828 -1.25842 4.59423 0 0 0
69 1 1.22432 -2.04139 4.30423 0 0 0
88 4 0.0279126 -2.32264 4.87116 0 0 0
107 5 -1.67614 -2.29775 3.04441 0 0 0
12 3 11.0059 10.0162 13.3186 0 0 0
13 3 11.9777 10.9084 13.7443 0 0 0
14 3 12.7232 10.6736 14.8891 0 0 0
32 6 5.03129 9.22802 7.06241 0 0 0
37 6 8.09284 9.55263 8.04153 0 0 0
40 6 10.4571 10.2764 12.503 0 0 0
41 6 12.1399 11.7626 13.2113 0 0 0
86 3 -0.701647 -3.54171 4.47015 0 0 0
98 5 -1.8842 -4.39852 1.67736 0 0 0
117 5 0.118934 -4.17996 4.10935 0 0 0
118 5 -1.04006 -3.94843 5.43041 0 0 0
80 3 -1.96115 -3.23788 3.5337 0 0 0
115 5 1.55968 -3.57155 0.0999524 0 0 0
62 7 24.2216 13.8161 25.7976 0 0 0
15 5 13.8927 11.9087 15.2686 0 0 0
26 5 23.5164 12.6897 25.5076 0 0 0
73 3 -3.96033 -3.95282 1.52109 0 0 0
75 3 -2.64626 -4.26375 2.45612 0 0 0
90 5 -5.57765 -5.47676 1.58143 0 0 0
93 5 -4.65116 -3.23248 1.96863 0 0 0
94 5 -3.51072 -3.43921 0.692998 0 0 0
97 5 -2.75444 -5.22039 2.98456 0 0 0
108 5 -2.67198 -3.00569 4.33475 0 0 0
71 3 -4.92716 -5.04537 0.811585 0 0 0
27 3 12.4461 9.51786 15.6209 0 0 0
34 6 7.26612 8.07766 5.5593 0 0 0
63 6 12.94 9.30342 16.4842 0 0 0
64 6 11.3065 7.788 15.7536 0 0 0
76 3 -0.808683 -1.32192 -1.90807 0 0 0
77 3 0.669133 -1.79012 -2.37967 0 0 0
81 3 1.95444 -2.01073 -1.47954 0 0 0
99 5 -0.680469 -0.534035 -1.16208 0 0 0
100 5 -1.17183 -2.22567 -1.43415 0 0 0
101 5 1.13908 -1.09074 -3.08163 0 0 0
102 5 0.598708 -2.74312 -2.92466 0 0 0
109 5 2.53412 -1.08158 -1.58664 0 0 0
110 5 2.44184 -2.71687 -2.15952 0 0 0
43 6 15.3155 10.1537 16.0901 0 0 0
47 6 17.2996 10.4239 17.6575 0 0 0
51 6 19.2655 10.6724 19.221 0 0 0
55 6 21.2361 10.9774 20.8664 0 0 0
59 6 22.7562 11.2785 22.9339 0 0 0
78 3 -1.99708 -0.765861 -2.86822 0 0 0
82 3 -3.52935 -0.526001 -2.465 0 0 0
83 4 -5.11148 -2.40185 -3.50824 0 0 0
85 4 -4.60292 -1.10087 -3.3321 0 0 0
103 5 -1.74087 0.275329 -3.09051 0 0 0
104 5 -2.03448 -1.2749 -3.8386 0 0 0
111 5 -3.86662 -0.495865 -1.41945 0 0 0
112 5 -3.63351 0.52623 -2.73626 0 0 0
113 5 -5.6176 -2.47789 -4.40441 0 0 0
116 5 -5.12309 -0.416978 -3.91123 0 0 0
35 6 6.99649 9.78952 6.01741 0 0 0
92 5 -6.99803 -4.52877 0.257589 0 0 0
16 1 14.9449 11.0996 16.4855 0 0 0
17 1 16.1322 12.0162 16.8041 0 0 0
18 1 16.9395 11.4075 17.9576 0 0 0
19 1 18.136 12.2878 18.3405 0 0 0
20 1 18.8819 11.6484 19.5194 0 0 0
21 1 20.0483 12.5374 19.971 0 0 0
22 1 20.7422 11.8968 21.1813 0 0 0
23 1 21.7807 12.8415 21.8026 0 0 0
24 1 22.2912 12.2463 23.1228 0 0 0
25 1 23.3139 13.1748 23.7858 0 0 0
42 6 14.3755 10.9318 17.3987 0 0 0
44 6 16.7617 12.115 15.9191 0 0 0
45 6 15.7585 12.999 17.0931 0 0 0
46 6 16.288 11.3024 18.8247 0 0 0
48 6 18.811 12.3805 17.4899 0 0 0
49 6 17.779 13.2757 18.6317 0 0 0
50 6 18.1874 11.5213 20.3501 0 0 0
52 6 20.7631 12.6472 19.1552 0 0 0
53 6 19.6603 13.5173 20.2481 0 0 0
54 6 19.9902 11.659 21.9326 0 0 0
56 6 22.6149 12.9738 21.1134 0 0 0
57 6 21.3176 13.8081 22.0015 0 0 0
58 6 21.453 12.1132 23.8068 0 0 0
60 6 24.2702 13.102 23.2674 0 0 0
61 6 22.9586 14.2041 23.7536 0 0 0
72 3 -6.05387 -4.75444 -0.256166 0 0 0
74 3 -6.07314 -3.75114 -1.47385 0 0 0
79 3 -5.04057 -3.64799 -2.68495 0 0 0
89 5 -4.41767 -5.89001 0.324912 0 0 0
91 5 -6.28146 -5.7623 -0.618923 0 0 0
95 5 -6.33674 -2.76705 -1.0853 0 0 0
96 5 -7.00469 -4.09002 -1.93179 0 0 0
105 5 -5.32131 -4.39853 -3.42486 0 0 0
106 5 -4.00871 -3.88887 -2.46875 0 0 0
ITEM: TIMESTEP
150
ITEM: NUMBER OF ATOMS
122
ITEM: BOX BOUNDS pp pp pp
0.0000000000000000e+00 2.0000000000000000e+01
0.0000000000000000e+00 2.0000000000000000e+01
0.0000000000000000e+00 2.0000000000000000e+01
ITEM: ATOMS id type xu yu zu vx vy vz
1 1 5.65266 8.36133 7.03809 0 0 0
2 1 6.98153 8.74615 6.40363 0 0 0
3 1 7.98847 8.58994 7.53826 0 0 0
4 2 7.45652 7.5485 8.43768 0 0 0
5 3 8.05298 7.5723 9.7307 0 0 0
6 3 7.37855 7.13422 10.8748 0 0 0
7 3 7.95341 7.21732 12.1433 0 0 0
8 3 9.22294 7.75884 12.3321 0 0 0
9 3 9.75247 7.91703 13.6286 0 0 0
10 4 9.2806 7.17762 14.5189 0 0 0
11 3 10.74 8.83753 14.0245 0 0 0
28 3 11.4629 8.63213 15.2039 0 0 0
29 3 9.94345 8.06214 11.182 0 0 0
30 3 9.38011 7.96571 9.91713 0 0 0
31 1 6.01509 7.86895 8.44293 0 0 0
33 6 5.18064 7.56656 6.46013 0 0 0
36 6 8.9495 8.30617 7.10952 0 0 0
38 6 6.44056 6.74153 10.8146 0 0 0
39 6 7.40303 6.89623 12.9393 0 0 0
65 6 10.9212 8.33717 11.2417 0 0 0
66 6 9.99127 8.18789 9.13572 0 0 0
67 6 5.80491 8.67072 9.15134 0 0 0
68 6 5.41381 6.98966 8.67682 0 0 0
70 2 -0.268286 -1.61465 5.76479 0 0 0
84 3 2.09469 -2.66165 -0.0407836 0 0 0
87 3 3.4225 -2.90246 0.766233 0 0 0
114 5 1.60136 -1.98749 0.655035 0 0 0
119 5 3.76865 -1.99901 1.27921 0 0 0
120 5 4.2806 -3.40067 0.29506 0 0 0
121 5 3.12641 -3.58266 1.56364 0 0 0
122 6 1.82076 -1.29877 4.52717 0 0 0
69 1 1.29869 -2.07863 4.24334 0 0 0
88 4 0.102244 -2.34638 4.81669 0 0 0
107 5 -1.60919 -2.31573 2.99694 0 0 0
12 3 10.9985 10.02 13.3282 0 0 0
13 3 11.9768 10.909 13.7455 0 0 0
14 3 12.7249 10.6765 14.8891 0 0 0
32 6 4.9984 9.23017 7.09673 0 0 0
37 6 8.06504 9.54298 8.06369 0 0 0
40 6 10.4484 10.2786 12.513 0 0 0
41 6 12.142 11.7593 13.2072 0 0 0
86 3 -0.639733 -3.56098 4.42499 0 0 0
98 5 -1.84154 -4.42153 1.64158 0 0 0
117 5 0.173655 -4.2083 4.06406 0 0 0
118 5 -0.977677 -3.95978 5.38873 0 0 0
80 3 -1.90043 -3.25079 3.49224 0 0 0
115 5 1.60283 -3.63315 0.04563 0 0 0
62 7 24.2777 13.8156 25.7409 0 0 0
15 5 13.9026 11.9071 15.2577 0 0 0
26 5 23.5652 12.6916 25.4597 0 0 0
73 3 -3.91429 -3.95828 1.49166 0 0 0
75 3 -2.5991 -4.27605 2.42281 0 0 0
90 5 -5.54475 -5.46751 1.56658 0 0 0
93 5 -4.59685 -3.22957 1.93837 0 0 0
94 5 -3.46366 -3.4529 0.659084 0 0 0
97 5 -2.7135 -5.22898 2.95661 0 0 0
108 5 -2.60581 -3.00824 4.29504 0 0 0
71 3 -4.89371 -5.04583 0.791821 0 0 0
27 3 12.4437 9.52654 15.6284 0 0 0
34 6 7.22159 8.05866 5.59269 0 0 0
63 6 12.9393 9.3142 16.4913 0 0 0
64 6 11.2948 7.80394 15.7748 0 0 0
76 3 -0.753995 -1.37291 -1.96406 0 0 0
77 3 0.717632 -1.85658 -2.4394 0 0 0
81 3 2.00472 -2.08396 -1.5435 0 0 0
99 5 -0.61569 -0.582399 -1.22267 0 0 0
100 5 -1.12311 -2.27099 -1.48399 0 0 0
101 5 1.19078 -1.16498 -3.14689 0 0 0
102 5 0.636502 -2.81169 -2.97918 0 0 0
109 5 2.59212 -1.16054 -1.65779 0 0 0
110 5 2.483 -2.79785 -2.22186 0 0 0
43 6 15.3182 10.1488 16.0844 0 0 0
47 6 17.3091 10.4166 17.6435 0 0 0
51 6 19.2817 10.6629 19.199 0 0 0
55 6 21.2596 10.966 20.836 0 0 0
59 6 22.7884 11.2702 22.8966 0 0 0
78 3 -1.94147 -0.811267 -2.9221 0 0 0
82 3 -3.46984 -0.555797 -2.51374 0 0 0
83 4 -5.07286 -2.42287 -3.54073 0 0 0
85 4 -4.55209 -1.12555 -3.3734 0 0 0
103 5 -1.677 0.226466 -3.1508 0 0 0
104 5 -1.98744 -1.3249 -3.88969 0 0 0
111 5 -3.80243 -0.51734 -1.46697 0 0 0
112 5 -3.56585 0.495917 -2.78998 0 0 0
113 5 -5.58339 -2.499 -4.43439 0 0 0
116 5 -5.06863 -0.440053 -3.95387 0 0 0
35 6 6.96319 9.77459 6.04195 0 0 0
92 5 -6.96225 -4.51376 0.243799 0 0 0
16 1 14.9543 11.099 16.4756 0 0 0
17 1 16.1479 12.0107 16.785 0 0 0
18 1 16.9556 11.404 17.9392 0 0 0
19 1 18.1584 12.2796 18.3131 0 0 0
20 1 18.9046 11.6427 19.4931 0 0 0
21 1 20.0776 12.5275 19.9357 0 0 0
22 1 20.772 11.89 21.1474 0 0 0
23 1 21.8178 12.8322 21.7597 0 0 0
24 1 22.3295 12.2417 23.0815 0 0 0
25 1 23.3597 13.168 23.7358 0 0 0
42 6 14.3871 10.9396 17.3917 0 0 0
44 6 16.7749 12.1008 15.8974 0 0 0
45 6 15.7807 12.9971 17.0696 0 0 0
46 6 16.3065 11.3074 18.8091 0 0 0
48 6 18.831 12.3636 17.4597 0 0 0
49 6 17.808 13.2711 18.5999 0 0 0
50 6 18.2123 11.5242 20.3268 0 0 0
52 6 20.7903 12.6287 19.1169 0 0 0
53 6 19.6961 13.5112 20.2085 0 0 0
54 6 20.0212 11.6606 21.9024 0 0 0
56 6 22.6505 12.9559 21.067 0 0 0
57 6 21.3609 13.8026 21.9547 0 0 0
58 6 21.4929 12.1171 23.7691 0 0 0
60 6 24.3138 13.087 23.2146 0 0 0
61 6 23.01 14.1992 23.6989 0 0 0
72 3 -6.02229 -4.75039 -0.272713 0 0 0
74 3 -6.03783 -3.75319 -1.49545 0 0 0
79 3 -5.00949 -3.66537 -2.71135 0 0 0
89 5 -4.39376 -5.89742 0.307381 0 0 0
91 5 -6.2603 -5.75803 -0.629333 0 0 0
95 5 -6.29109 -2.76483 -1.11087 0 0 0
96 5 -6.97425 -4.08615 -1.94776 0 0 0
105 5 -5.29996 -4.41716 -3.44622 0 0 0
106 5 -3.9789 -3.91427 -2.49822 0 0 0
ITEM: TIMESTEP
160
ITEM: NUMBER OF ATOMS
122
ITEM: BOX BOUNDS pp pp pp
0.0000000000000000e+00 2.0000000000000000e+01
0.0000000000000000e+00 2.0000000000000000e+01
0.0000000000000000e+00 2.0000000000000000e+01
ITEM: ATOMS id type xu yu zu vx vy vz
1 1 5.65395 8.35915 7.03731 0 0 0
2 1 6.98296 8.74367 6.40294 0 0 0
3 1 7.98968 8.58777 7.5378 0 0 0
4 2 7.45752 7.54666 8.43747 0 0 0
5 3 8.05375 7.57084 9.73058 0 0 0
6 3 7.3791 7.13319 10.8748 0 0 0
7 3 7.95375 7.21666 12.1433 0 0 0
8 3 9.22329 7.75816 12.3321 0 0 0
9 3 9.7526 7.91674 13.6287 0 0 0
10 4 9.28053 7.17766 14.5192 0 0 0
11 3 10.7401 8.8373 14.0244 0 0 0
28 3 11.4628 8.63224 15.204 0 0 0
29 3 9.94402 8.06103 11.182 0 0 0
30 3 9.38088 7.96422 9.91711 0 0 0
31 1 6.0161 7.86721 8.44237 0 0 0
33 6 5.18198 7.56422 6.45953 0 0 0
36 6 8.95077 8.30379 7.10932 0 0 0
38 6 6.44109 6.74054 10.8145 0 0 0
39 6 7.40321 6.89588 12.9393 0 0 0
65 6 10.9218 8.33601 11.2418 0 0 0
66 6 9.99219 8.18611 9.13573 0 0 0
67 6 5.80586 8.66923 9.15047 0 0 0
68 6 5.41473 6.98805 8.67645 0 0 0
70 2 -0.268286 -1.61465 5.76479 0 0 0
84 3 2.09469 -2.66165 -0.0407836 0 0 0
87 3 3.4225 -2.90246 0.766233 0 0 0
114 5 1.60136 -1.98749 0.655035 0 0 0
119 5 3.76865 -1.99901 1.27921 0 0 0
120 5 4.2806 -3.40067 0.29506 0 0 0
121 5 3.12641 -3.58266 1.56364 0 0 0
122 6 1.82076 -1.29877 4.52717 0 0 0
69 1 1.29869 -2.07863 4.24334 0 0 0
88 4 0.102244 -2.34638 4.81669 0 0 0
107 5 -1.60919 -2.31573 2.99694 0 0 0
12 3 10.9989 10.0195 13.3277 0 0 0
13 3 11.9771 10.9086 13.745 0 0 0
14 3 12.725 10.6764 14.8888 0 0 0
32 6 4.99974 9.22806 7.09554 0 0 0
37 6 8.06624 9.54098 8.06292 0 0 0
40 6 10.4489 10.2779 12.5124 0 0 0
41 6 12.1425 11.7587 13.2064 0 0 0
86 3 -0.639733 -3.56098 4.42499 0 0 0
98 5 -1.84154 -4.42153 1.64158 0 0 0
117 5 0.173655 -4.2083 4.06406 0 0 0
118 5 -0.977677 -3.95978 5.38873 0 0 0
80 3 -1.90043 -3.25079 3.49224 0 0 0
115 5 1.60283 -3.63315 0.04563 0 0 0
62 7 24.2762 13.8183 25.7415 0 0 0
15 5 13.9027 11.9071 15.2572 0 0 0
26 5 23.5637 12.6943 25.4605 0 0 0
73 3 -3.91429 -3.95828 1.49166 0 0 0
75 3 -2.5991 -4.27605 2.42281 0 0 0
90 5 -5.54475 -5.46751 1.56658 0 0 0
93 5 -4.59685 -3.22957 1.93837 0 0 0
94 5 -3.46366 -3.4529 0.659084 0 0 0
97 5 -2.7135 -5.22898 2.95661 0 0 0
108 5 -2.60581 -3.00824 4.29504 0 0 0
71 3 -4.89371 -5.04583 0.791821 0 0 0
27 3 12.4436 9.52672 15.6284 0 0 0
34 6 7.2231 8.0559 5.59227 0 0 0
63 6 12.9391 9.31463 16.4914 0 0 0
64 6 11.2946 7.80425 15.7751 0 0 0
76 3 -0.753995 -1.37291 -1.96406 0 0 0
77 3 0.717632 -1.85658 -2.4394 0 0 0
81 3 2.00472 -2.08396 -1.5435 0 0 0
99 5 -0.61569 -0.582399 -1.22267 0 0 0
100 5 -1.12311 -2.27099 -1.48399 0 0 0
101 5 1.19078 -1.16498 -3.14689 0 0 0
102 5 0.636502 -2.81169 -2.97918 0 0 0
109 5 2.59212 -1.16054 -1.65779 0 0 0
110 5 2.483 -2.79785 -2.22186 0 0 0
43 6 15.3181 10.1489 16.0846 0 0 0
47 6 17.3088 10.4171 17.644 0 0 0
51 6 19.2811 10.6638 19.1998 0 0 0
55 6 21.2587 10.9673 20.837 0 0 0
59 6 22.7872 11.272 22.8978 0 0 0
78 3 -1.94147 -0.811267 -2.9221 0 0 0
82 3 -3.46984 -0.555797 -2.51374 0 0 0
83 4 -5.07286 -2.42287 -3.54073 0 0 0
85 4 -4.55209 -1.12555 -3.3734 0 0 0
103 5 -1.677 0.226466 -3.1508 0 0 0
104 5 -1.98744 -1.3249 -3.88969 0 0 0
111 5 -3.80243 -0.51734 -1.46697 0 0 0
112 5 -3.56585 0.495917 -2.78998 0 0 0
113 5 -5.58339 -2.499 -4.43439 0 0 0
116 5 -5.06863 -0.440053 -3.95387 0 0 0
35 6 6.96474 9.772 6.04092 0 0 0
92 5 -6.96225 -4.51376 0.243799 0 0 0
16 1 14.9542 11.0993 16.4755 0 0 0
17 1 16.1478 12.011 16.7848 0 0 0
18 1 16.9552 11.4046 17.9393 0 0 0
19 1 18.158 12.2802 18.3132 0 0 0
20 1 18.904 11.6437 19.4935 0 0 0
21 1 20.0769 12.5286 19.936 0 0 0
22 1 20.7711 11.8914 21.148 0 0 0
23 1 21.8169 12.8338 21.7602 0 0 0
24 1 22.3283 12.2436 23.0823 0 0 0
25 1 23.3584 13.1701 23.7365 0 0 0
42 6 14.3868 10.9402 17.3915 0 0 0
44 6 16.775 12.1008 15.8973 0 0 0
45 6 15.7806 12.9975 17.069 0 0 0
46 6 16.306 11.3084 18.8092 0 0 0
48 6 18.8308 12.3639 17.4598 0 0 0
49 6 17.8076 13.2719 18.5995 0 0 0
50 6 18.2115 11.5256 20.3271 0 0 0
52 6 20.7898 12.6295 19.1173 0 0 0
53 6 19.6955 13.5124 20.2084 0 0 0
54 6 20.0202 11.6624 21.903 0 0 0
56 6 22.6497 12.9572 21.0676 0 0 0
57 6 21.3601 13.8042 21.9548 0 0 0
58 6 21.4916 12.1194 23.7698 0 0 0
60 6 24.3126 13.0888 23.2155 0 0 0
61 6 23.0089 14.2013 23.6992 0 0 0
72 3 -6.02229 -4.75039 -0.272713 0 0 0
74 3 -6.03783 -3.75319 -1.49545 0 0 0
79 3 -5.00949 -3.66537 -2.71135 0 0 0
89 5 -4.39376 -5.89742 0.307381 0 0 0
91 5 -6.2603 -5.75803 -0.629333 0 0 0
95 5 -6.29109 -2.76483 -1.11087 0 0 0
96 5 -6.97425 -4.08615 -1.94776 0 0 0
105 5 -5.29996 -4.41716 -3.44622 0 0 0
106 5 -3.9789 -3.91427 -2.49822 0 0 0
ITEM: TIMESTEP
170
ITEM: NUMBER OF ATOMS
122
ITEM: BOX BOUNDS pp pp pp
0.0000000000000000e+00 2.0000000000000000e+01
0.0000000000000000e+00 2.0000000000000000e+01
0.0000000000000000e+00 2.0000000000000000e+01
ITEM: ATOMS id type xu yu zu vx vy vz
1 1 5.48598 8.24606 7.22861 0 0 0
2 1 6.78468 8.68165 6.56517 0 0 0
3 1 7.82657 8.53863 7.66959 0 0 0
4 2 7.35133 7.46719 8.56551 0 0 0
5 3 7.98194 7.4889 9.84225 0 0 0
6 3 7.3527 7.01219 10.9967 0 0 0
7 3 7.95926 7.09289 12.2504 0 0 0
8 3 9.21643 7.67024 12.4141 0 0 0
9 3 9.77619 7.82415 13.6983 0 0 0
10 4 9.35154 7.05655 14.5885 0 0 0
11 3 10.7457 8.76828 14.0827 0 0 0
28 3 11.5066 8.56663 15.2388 0 0 0
29 3 9.89566 8.01377 11.2502 0 0 0
30 3 9.30111 7.92004 9.99949 0 0 0
31 1 5.9015 7.74292 8.61481 0 0 0
33 6 5.02269 7.44635 6.65039 0 0 0
36 6 8.78369 8.29144 7.21052 0 0 0
38 6 6.42577 6.59177 10.9551 0 0 0
39 6 7.44087 6.74244 13.0554 0 0 0
65 6 10.8659 8.31783 11.2882 0 0 0
66 6 9.88362 8.1733 9.20575 0 0 0
67 6 5.68652 8.52652 9.34186 0 0 0
68 6 5.33385 6.84193 8.8501 0 0 0
70 2 -0.163131 -1.66784 5.72846 0 0 0
84 3 2.02069 -2.54771 -0.174195 0 0 0
87 3 3.37849 -2.78371 0.582807 0 0 0
114 5 1.54015 -1.89733 0.552512 0 0 0
119 5 3.72702 -1.88598 1.10416 0 0 0
120 5 4.22825 -3.25698 0.0724278 0 0 0
121 5 3.12026 -3.48606 1.37414 0 0 0
122 6 1.87795 -1.28983 4.42972 0 0 0
69 1 1.3593 -2.07198 4.14593 0 0 0
88 4 0.187186 -2.37232 4.75244 0 0 0
107 5 -1.58449 -2.33073 2.99151 0 0 0
12 3 10.9491 9.96904 13.3996 0 0 0
13 3 11.9109 10.8811 13.8052 0 0 0
14 3 12.6968 10.6536 14.9243 0 0 0
32 6 4.80746 9.09328 7.31926 0 0 0
37 6 7.88849 9.48514 8.20857 0 0 0
40 6 10.3693 10.2234 12.6039 0 0 0
41 6 12.0355 11.7444 13.2769 0 0 0
86 3 -0.547829 -3.59039 4.35841 0 0 0
98 5 -1.82814 -4.41001 1.59774 0 0 0
117 5 0.263339 -4.21587 3.95632 0 0 0
118 5 -0.846849 -4.0158 5.32363 0 0 0
80 3 -1.84389 -3.28117 3.47511 0 0 0
115 5 1.54772 -3.52902 -0.0933329 0 0 0
62 7 24.4415 13.9754 25.5125 0 0 0
15 5 13.8461 11.914 15.2815 0 0 0
26 5 23.756 12.8346 25.2319 0 0 0
73 3 -3.91194 -3.97857 1.52697 0 0 0
75 3 -2.56136 -4.29443 2.40669 0 0 0
90 5 -5.51445 -5.51633 1.622 0 0 0
93 5 -4.59081 -3.2714 2.01225 0 0 0