ITEM: TIMESTEP
0
ITEM: NUMBER OF ATOMS
122
ITEM: BOX BOUNDS pp pp pp
0.0000000000000000e+00 2.0000000000000000e+01
0.0000000000000000e+00 2.0000000000000000e+01
0.0000000000000000e+00 2.0000000000000000e+01
ITEM: ATOMS id type xu yu zu vx vy vz
1 1 2.21407 9.53815 1.16076 0 0 0
2 1 3.63629 9.80186 0.716064 0 0 0
3 1 4.48837 9.52034 1.87999 0 0 0
4 2 3.71315 8.57106 2.75058 0 0 0
5 3 4.14085 8.6214 4.01333 0 0 0
6 3 3.2234 8.36398 5.08665 0 0 0
7 3 3.65109 8.41433 6.34941 0 0 0
8 3 5.00263 8.5332 6.69466 0 0 0
9 3 5.44552 8.53369 8.08888 0 0 0
10 4 4.81257 7.92837 8.92133 0 0 0
11 3 6.73153 9.23196 8.43323 0 0 0
27 3 8.5743 9.59808 9.95644 0 0 0
28 3 7.41297 8.9657 9.62266 0 0 0
29 3 5.92008 8.79062 5.62134 0 0 0
30 3 5.49239 8.74027 4.35858 0 0 0
31 1 2.33527 9.07091 2.64299 0 0 0
33 6 1.76604 8.81343 0.557402 0 0 0
36 6 5.40067 9.05352 1.59752 0 0 0
38 6 2.22832 8.16474 4.82185 0 0 0
39 6 2.98978 8.16822 7.16922 0 0 0
65 6 6.91516 8.98986 5.88614 0 0 0
66 6 6.1537 8.98638 3.53877 0 0 0
67 6 2.1555 9.91455 3.28794 0 0 0
68 6 1.59997 8.29777 2.89118 0 0 0
70 2 0.895394 0.867982 4.88954 0 0 0
84 3 3.47818 0.824899 0.239012 0 0 0
87 3 4.53605 1.08424 1.27999 0 0 0
88 4 1.58029 0.0990422 4.44272 0 0 0
114 5 2.454 0.848053 0.822552 0 0 0
119 5 4.39584 2.0356 1.73303 0 0 0
120 5 5.50549 1.00321 0.756895 0 0 0
121 5 4.53091 0.360004 2.07085 0 0 0
122 6 3.09736 0.514234 5.71792 0 0 0
107 5 -0.180989 0.276294 2.35551 0 0 0
12 3 7.17427 10.3508 7.5893 0 0 0
13 3 8.3356 10.9832 7.92308 0 0 0
14 3 9.00825 10.5779 9.13687 0 0 0
32 6 1.58429 10.4334 1.11664 0 0 0
35 6 3.73739 10.8828 0.353639 0 0 0
37 6 4.65866 10.4725 2.44956 0 0 0
40 6 6.71784 10.5913 6.74441 0 0 0
41 6 8.7212 11.7162 7.31978 0 0 0
62 7 20.7799 10.7192 20.7609 0 0 0
69 1 2.92945 -0.109998 4.96816 0 0 0
86 3 1.33163 -0.931748 3.39599 0 0 0
98 5 0.37114 -1.59657 0.896901 0 0 0
117 5 2.03889 -0.7668 2.54009 0 0 0
118 5 1.40996 -1.88892 3.70855 0 0 0
15 5 10.4977 11.4891 9.53846 0 0 0
26 5 19.6186 10.0868 20.4271 0 0 0
73 3 -1.72446 -1.5918 0.988788 0 0 0
75 3 -0.351319 -1.71166 1.62134 0 0 0
80 3 -0.087461 -0.730728 2.79953 0 0 0
90 5 -2.05023 -3.61435 0.411594 0 0 0
92 5 -4.22416 -2.65241 0.190923 0 0 0
93 5 -2.54761 -1.68361 1.80975 0 0 0
94 5 -1.81799 -0.584777 0.544764 0 0 0
97 5 -0.211839 -2.79984 2.02928 0 0 0
108 5 -0.80992 -0.845823 3.52397 0 0 0
34 6 3.8644 9.20498 -0.145159 0 0 0
63 6 9.14662 9.28448 10.8363 0 0 0
64 6 7.01858 8.09363 10.2503 0 0 0
76 3 0.931296 1.79437 -1.30486 0 0 0
77 3 2.28795 1.60167 -1.91506 0 0 0
81 3 3.34583 1.86101 -0.874077 0 0 0
99 5 0.791082 2.74574 -0.851818 0 0 0
100 5 0.731527 0.996221 -0.595598 0 0 0
101 5 2.41778 2.3918 -2.69534 0 0 0
102 5 2.42817 0.650301 -2.36809 0 0 0
109 5 3.3303 2.87827 -0.410461 0 0 0
110 5 4.43995 1.84587 -1.3866 0 0 0
43 6 11.1743 9.53119 10.9237 0 0 0
47 6 12.9052 9.45365 12.7479 0 0 0
51 6 14.6361 9.3761 14.5722 0 0 0
55 6 16.297 9.29054 16.3255 0 0 0
59 6 18.0279 9.21299 18.1498 0 0 0
78 3 -0.187729 1.66604 -2.44122 0 0 0
82 3 -1.62312 1.7117 -1.87768 0 0 0
83 4 -3.18616 0.341846 -3.28139 0 0 0
85 4 -2.62625 1.51023 -2.9791 0 0 0
103 5 -0.0427042 2.40632 -3.09003 0 0 0
104 5 -0.00156241 0.633521 -2.93034 0 0 0
111 5 -1.72896 1.01074 -0.990291 0 0 0
112 5 -1.76333 2.66306 -1.42464 0 0 0
113 5 -4.00145 0.334775 -4.02655 0 0 0
116 5 -2.96915 2.38546 -3.44428 0 0 0
115 5 3.56365 -0.184341 -0.153582 0 0 0
16 1 11.0037 10.5823 11.1138 0 0 0
17 1 12.3049 11.2307 11.5896 0 0 0
18 1 12.7346 10.5047 12.938 0 0 0
19 1 14.0358 11.1531 13.4139 0 0 0
20 1 14.4655 10.4272 14.7623 0 0 0
21 1 15.7667 11.0756 15.2381 0 0 0
22 1 16.1964 10.3496 16.5866 0 0 0
23 1 17.4976 10.9981 17.0624 0 0 0
24 1 17.8573 10.2641 18.3399 0 0 0
25 1 19.2285 10.9205 18.8867 0 0 0
42 6 10.2441 10.6874 11.8499 0 0 0
44 6 13.0645 11.1256 10.8534 0 0 0
45 6 12.1343 12.2818 11.7797 0 0 0
46 6 11.975 10.6098 13.6742 0 0 0
48 6 14.7954 11.0481 12.6777 0 0 0
49 6 13.8652 12.2042 13.604 0 0 0
50 6 13.7059 10.5323 15.4985 0 0 0
52 6 16.5263 10.9705 14.502 0 0 0
53 6 15.5961 12.1267 15.4282 0 0 0
54 6 15.3668 10.4467 17.2517 0 0 0
56 6 18.2572 10.893 16.3263 0 0 0
57 6 17.327 12.0491 17.2525 0 0 0
58 6 17.0977 10.3692 19.076 0 0 0
60 6 19.9881 10.8154 18.1505 0 0 0
61 6 19.0579 11.9716 19.0768 0 0 0
71 3 -2.0978 -2.68849 -0.0685168 0 0 0
72 3 -3.5169 -2.48747 -0.66498 0 0 0
74 3 -3.80266 -1.22645 -1.37079 0 0 0
79 3 -2.9004 -0.919174 -2.57558 0 0 0
89 5 -1.37535 -2.57339 -0.792952 0 0 0
91 5 -3.63245 -3.38174 -1.295 0 0 0
95 5 -3.74185 -0.390048 -0.680324 0 0 0
96 5 -4.85888 -1.29468 -1.73098 0 0 0
105 5 -2.96121 -1.75557 -3.26605 0 0 0
106 5 -1.79823 -0.932091 -2.25148 0 0 0
ITEM: TIMESTEP
25
ITEM: NUMBER OF ATOMS
122
ITEM: BOX BOUNDS pp pp pp
0.0000000000000000e+00 2.0000000000000000e+01
0.0000000000000000e+00 2.0000000000000000e+01
0.0000000000000000e+00 2.0000000000000000e+01
ITEM: ATOMS id type xu yu zu vx vy vz
1 1 2.32137 9.56789 1.14783 0 0 0
2 1 3.72971 9.77027 0.648075 0 0 0
3 1 4.54967 9.48539 1.88601 0 0 0
4 2 3.77238 8.52909 2.70959 0 0 0
5 3 4.1679 8.51944 4.05703 0 0 0
6 3 3.28581 8.28543 5.1334 0 0 0
7 3 3.73304 8.31398 6.44283 0 0 0
8 3 5.067 8.55405 6.72796 0 0 0
9 3 5.51576 8.62415 8.04897 0 0 0
10 4 4.86471 8.02075 8.91095 0 0 0
11 3 6.67447 9.31758 8.43311 0 0 0
27 3 8.50749 9.53101 9.97722 0 0 0
28 3 7.32997 8.9204 9.58318 0 0 0
29 3 5.95613 8.65329 5.65988 0 0 0
30 3 5.51635 8.67401 4.36648 0 0 0
31 1 2.40888 9.03397 2.56932 0 0 0
33 6 1.7642 8.88571 0.504151 0 0 0
36 6 5.50494 9.07354 1.56093 0 0 0
38 6 2.29638 8.09516 4.98696 0 0 0
39 6 3.05588 8.18057 7.19968 0 0 0
65 6 6.96037 8.69401 5.80801 0 0 0
66 6 6.23372 8.7894 3.65573 0 0 0
67 6 2.23183 9.8677 3.24939 0 0 0
68 6 1.66769 8.24663 2.7183 0 0 0
70 2 1.17179 1.1186 5.23618 0 0 0
84 3 3.90166 1.06647 0.411501 0 0 0
87 3 5.08985 1.16652 1.43383 0 0 0
88 4 1.84526 0.151803 4.8124 0 0 0
114 5 3.12423 1.34999 1.10013 0 0 0
119 5 4.91386 1.93819 2.19112 0 0 0
120 5 6.13106 1.2086 1.09073 0 0 0
121 5 5.05128 0.229391 1.98193 0 0 0
122 6 3.47258 0.728852 5.89389 0 0 0
107 5 0.177041 0.128688 2.63871 0 0 0
12 3 7.1917 10.4158 7.72732 0 0 0
13 3 8.39079 10.9934 8.09137 0 0 0
14 3 9.06811 10.565 9.22719 0 0 0
32 6 1.88555 10.5495 1.20863 0 0 0
35 6 3.86937 10.8021 0.320681 0 0 0
37 6 4.6891 10.4247 2.42233 0 0 0
40 6 6.69319 10.816 6.93712 0 0 0
41 6 8.77832 11.7487 7.5253 0 0 0
62 7 19.9212 11.2844 20.7624 0 0 0
69 1 3.11273 0.0576761 5.27367 0 0 0
86 3 1.4214 -0.990528 3.95406 0 0 0
98 5 0.329124 -1.67773 1.02281 0 0 0
117 5 2.34751 -1.2119 3.43579 0 0 0
118 5 1.29811 -1.76067 4.72012 0 0 0
15 5 10.5416 11.4249 9.56778 0 0 0
26 5 19.1926 10.1888 20.4525 0 0 0
73 3 -1.79533 -1.94553 1.09464 0 0 0
75 3 -0.341857 -1.94015 1.84885 0 0 0
80 3 0.101264 -0.883177 3.05471 0 0 0
90 5 -2.80896 -3.88399 0.70341 0 0 0
92 5 -4.69925 -2.92586 -0.2018 0 0 0
93 5 -2.60223 -1.79366 1.80979 0 0 0
94 5 -1.71313 -1.09005 0.465263 0 0 0
97 5 -0.0822395 -2.96443 2.13417 0 0 0
108 5 -0.603839 -0.871717 3.8952 0 0 0
34 6 3.9584 9.06668 -0.15524 0 0 0
63 6 8.93164 9.17479 10.8284 0 0 0
64 6 6.97172 8.1486 10.1488 0 0 0
76 3 0.940437 1.86822 -1.60444 0 0 0
77 3 2.51979 1.82473 -2.00026 0 0 0
81 3 3.75273 1.8882 -0.970687 0 0 0
99 5 0.841609 2.60339 -0.80181 0 0 0
100 5 0.799662 0.855547 -1.24534 0 0 0
101 5 2.8169 2.6764 -2.6153 0 0 0
102 5 2.73628 0.960785 -2.64259 0 0 0
109 5 4.01898 2.947 -0.846008 0 0 0
110 5 4.52668 1.52664 -1.64854 0 0 0
43 6 11.2247 9.56137 10.9016 0 0 0
47 6 12.9003 9.4712 12.6999 0 0 0
51 6 14.6154 9.38375 14.5192 0 0 0
55 6 16.3273 9.30661 16.3142 0 0 0
59 6 18.0212 9.21949 18.0921 0 0 0
78 3 -0.34599 2.0743 -2.58349 0 0 0
82 3 -1.89536 2.16593 -2.10794 0 0 0
83 4 -3.42248 0.396886 -3.41776 0 0 0
85 4 -2.95104 1.66807 -3.04905 0 0 0
103 5 -0.258761 3.03162 -3.10244 0 0 0
104 5 -0.327893 1.32707 -3.36699 0 0 0
111 5 -2.22719 1.89701 -1.10742 0 0 0
112 5 -2.11031 3.23518 -2.14156 0 0 0
113 5 -3.98516 0.468065 -4.2762 0 0 0
116 5 -3.51299 2.40273 -3.49702 0 0 0
115 5 3.83569 -0.0159456 0.243016 0 0 0
16 1 11.0444 10.6187 11.0947 0 0 0
17 1 12.3351 11.2467 11.6091 0 0 0
18 1 12.7417 10.5288 12.9047 0 0 0
19 1 14.0345 11.151 13.4254 0 0 0
20 1 14.4505 10.4411 14.7198 0 0 0
21 1 15.7424 11.0743 15.2243 0 0 0
22 1 16.1558 10.3634 16.5104 0 0 0
23 1 17.4471 11.0022 17.0057 0 0 0
24 1 17.8288 10.2747 18.2811 0 0 0
25 1 19.0815 10.9184 18.8319 0 0 0
42 6 10.2715 10.7509 11.8512 0 0 0
44 6 13.1171 11.13 10.8622 0 0 0
45 6 12.1695 12.303 11.8112 0 0 0
46 6 11.9546 10.6424 13.6474 0 0 0
48 6 14.8218 11.0357 12.6843 0 0 0
49 6 13.8757 12.2075 13.6322 0 0 0
50 6 13.669 10.5564 15.4677 0 0 0
52 6 16.5303 10.9601 14.4822 0 0 0
53 6 15.5833 12.1317 15.4335 0 0 0
54 6 15.3803 10.4788 17.2645 0 0 0
56 6 18.2402 10.888 16.2695 0 0 0
57 6 17.2838 12.0581 17.2191 0 0 0
58 6 17.0435 10.3792 19.0284 0 0 0
60 6 19.9553 10.7041 18.2152 0 0 0
61 6 18.948 11.9929 18.9485 0 0 0
71 3 -2.45534 -3.05609 0.0883321 0 0 0
72 3 -3.77286 -2.78964 -0.785132 0 0 0
74 3 -4.11872 -1.53563 -1.69076 0 0 0
79 3 -3.2537 -1.00331 -2.92316 0 0 0
89 5 -1.76299 -3.52803 -0.610174 0 0 0
91 5 -3.84786 -3.72678 -1.36557 0 0 0
95 5 -4.49536 -0.703117 -1.0836 0 0 0
96 5 -5.04462 -1.8864 -2.14858 0 0 0
105 5 -3.62705 -1.53785 -3.79688 0 0 0
106 5 -2.20862 -1.25773 -2.9046 0 0 0
ITEM: TIMESTEP
50
ITEM: NUMBER OF ATOMS
122
ITEM: BOX BOUNDS pp pp pp
0.0000000000000000e+00 2.0000000000000000e+01
0.0000000000000000e+00 2.0000000000000000e+01
0.0000000000000000e+00 2.0000000000000000e+01
ITEM: ATOMS id type xu yu zu vx vy vz
1 1 2.37724 9.6267 1.0571 0 0 0
2 1 3.81931 9.70263 0.577445 0 0 0
3 1 4.62569 9.43672 1.84508 0 0 0
4 2 3.825 8.48406 2.63591 0 0 0
5 3 4.23943 8.42206 3.99152 0 0 0
6 3 3.34926 8.23645 5.05637 0 0 0
7 3 3.77351 8.28084 6.3801 0 0 0
8 3 5.10478 8.52338 6.69826 0 0 0
9 3 5.49685 8.65661 8.03785 0 0 0
10 4 4.77409 8.14397 8.91847 0 0 0
11 3 6.65003 9.32648 8.46561 0 0 0
27 3 8.47267 9.52242 10.0452 0 0 0
28 3 7.28175 8.92844 9.63866 0 0 0
29 3 6.01309 8.55352 5.64302 0 0 0
30 3 5.59541 8.48641 4.32513 0 0 0
31 1 2.46848 9.05153 2.47232 0 0 0
33 6 1.79213 8.97561 0.405512 0 0 0
36 6 5.59424 9.03039 1.55354 0 0 0
38 6 2.35796 8.06668 4.89882 0 0 0
39 6 3.07845 8.16439 7.1164 0 0 0
65 6 7.01561 8.60159 5.81929 0 0 0
66 6 6.32156 8.48284 3.61318 0 0 0
67 6 2.30931 9.8736 3.17125 0 0 0
68 6 1.70506 8.28404 2.60778 0 0 0
70 2 1.19609 0.928 5.40009 0 0 0
84 3 3.89079 1.09332 0.395106 0 0 0
87 3 5.14855 1.19874 1.32982 0 0 0
88 4 1.87885 0.0457046 4.82607 0 0 0
114 5 3.15812 1.42713 1.1188 0 0 0
119 5 5.05221 2.03337 2.03033 0 0 0
120 5 6.16562 1.19062 0.910089 0 0 0
121 5 5.10597 0.303275 1.94765 0 0 0
122 6 3.58121 0.805608 5.60926 0 0 0
107 5 0.25881 0.0345951 2.72237 0 0 0
12 3 7.16898 10.4205 7.77529 0 0 0
13 3 8.34053 11.0294 8.19386 0 0 0
14 3 9.02301 10.5768 9.30471 0 0 0
32 6 1.94068 10.6253 1.08935 0 0 0
35 6 4.05687 10.6787 0.156404 0 0 0
37 6 4.7459 10.3753 2.38828 0 0 0
40 6 6.68388 10.8059 6.96832 0 0 0
41 6 8.70789 11.8267 7.66978 0 0 0
62 7 19.5719 11.6392 21.1393 0 0 0
69 1 3.20449 0.0949893 5.0424 0 0 0
86 3 1.38924 -1.14919 4.0819 0 0 0
98 5 0.328436 -1.90556 1.20738 0 0 0
117 5 2.32013 -1.46774 3.59542 0 0 0
118 5 1.19836 -1.83961 4.90941 0 0 0
15 5 10.5092 11.4235 9.61238 0 0 0
26 5 18.7693 10.5882 20.8241 0 0 0
73 3 -1.81905 -1.82211 1.10246 0 0 0
75 3 -0.43663 -1.98182 1.98753 0 0 0
80 3 0.0922189 -0.956421 3.15652 0 0 0
90 5 -3.01587 -3.68757 0.849502 0 0 0
92 5 -4.6421 -2.96406 -0.298449 0 0 0
93 5 -2.65042 -1.39521 1.66637 0 0 0
94 5 -1.5428 -1.08347 0.376781 0 0 0
97 5 -0.379438 -2.99034 2.41236 0 0 0
108 5 -0.653759 -0.892223 3.95559 0 0 0
34 6 4.01083 8.91031 -0.148826 0 0 0
63 6 8.90933 9.14711 10.8795 0 0 0
64 6 6.90596 8.16568 10.1997 0 0 0
76 3 0.878552 1.84519 -1.56666 0 0 0
77 3 2.44636 1.87428 -1.97782 0 0 0
81 3 3.70887 1.84763 -1.01643 0 0 0
99 5 0.775481 2.52585 -0.718752 0 0 0
100 5 0.752616 0.815982 -1.24178 0 0 0
101 5 2.73719 2.7891 -2.51182 0 0 0
102 5 2.67761 1.06114 -2.68207 0 0 0
109 5 4.03184 2.89836 -0.976156 0 0 0
110 5 4.39477 1.37151 -1.72222 0 0 0
43 6 11.2178 9.55833 10.941 0 0 0
47 6 12.9196 9.50381 12.6742 0 0 0
51 6 14.5974 9.41665 14.4514 0 0 0
55 6 16.3258 9.31357 16.2456 0 0 0
59 6 18.0893 9.23795 18.1204 0 0 0
78 3 -0.390456 2.17092 -2.53925 0 0 0
82 3 -1.95196 2.14779 -2.13523 0 0 0
83 4 -3.40894 0.361563 -3.47974 0 0 0
85 4 -2.95409 1.6435 -3.12328 0 0 0
103 5 -0.336815 3.23135 -2.80488 0 0 0
104 5 -0.313658 1.62366 -3.4824 0 0 0
111 5 -2.29754 1.86409 -1.13492 0 0 0
112 5 -2.19859 3.21037 -2.15335 0 0 0
113 5 -4.03588 0.41932 -4.29831 0 0 0
116 5 -3.49345 2.375 -3.6272 0 0 0
115 5 3.7732 0.0138155 0.272393 0 0 0
16 1 11.0381 10.6172 11.1259 0 0 0
17 1 12.335 11.2631 11.5812 0 0 0
18 1 12.7572 10.5627 12.8726 0 0 0
19 1 14.0424 11.1958 13.3739 0 0 0
20 1 14.4479 10.4729 14.662 0 0 0
21 1 15.7459 11.0907 15.178 0 0 0
22 1 16.1631 10.3676 16.4611 0 0 0
23 1 17.4539 10.9821 17.0179 0 0 0
24 1 17.8105 10.2707 18.33 0 0 0
25 1 18.9541 10.9625 19.0752 0 0 0
42 6 10.2837 10.7555 11.9001 0 0 0
44 6 13.1015 11.1306 10.8179 0 0 0
45 6 12.1742 12.3243 11.766 0 0 0
46 6 11.9737 10.6788 13.622 0 0 0
48 6 14.825 11.0818 12.6246 0 0 0
49 6 13.8767 12.2518 13.5799 0 0 0
50 6 13.6595 10.5931 15.4028 0 0 0
52 6 16.5246 10.9789 14.4252 0 0 0
53 6 15.5818 12.146 15.3861 0 0 0
54 6 15.3634 10.4697 17.1937 0 0 0
56 6 18.2632 10.8539 16.299 0 0 0
57 6 17.2897 12.0427 17.2008 0 0 0
58 6 16.9367 10.2804 18.9816 0 0 0
60 6 19.9212 10.604 18.7177 0 0 0
61 6 18.8938 12.0431 18.9536 0 0 0
71 3 -2.50974 -2.97614 0.186047 0 0 0
72 3 -3.69513 -2.79371 -0.826117 0 0 0
74 3 -4.0376 -1.58431 -1.79496 0 0 0
79 3 -3.11584 -1.01783 -2.96384 0 0 0
89 5 -1.82424 -3.56414 -0.436479 0 0 0
91 5 -3.63849 -3.73241 -1.39518 0 0 0
95 5 -4.48743 -0.781264 -1.20203 0 0 0
96 5 -4.9001 -2.02557 -2.30168 0 0 0
105 5 -3.32386 -1.61153 -3.85506 0 0 0
106 5 -2.04351 -1.14782 -2.83306 0 0 0
ITEM: TIMESTEP
75
ITEM: NUMBER OF ATOMS
122
ITEM: BOX BOUNDS pp pp pp
0.0000000000000000e+00 2.0000000000000000e+01
0.0000000000000000e+00 2.0000000000000000e+01
0.0000000000000000e+00 2.0000000000000000e+01
ITEM: ATOMS id type xu yu zu vx vy vz
1 1 2.40954 9.60286 0.96719 0 0 0
2 1 3.8529 9.62838 0.484001 0 0 0
3 1 4.66073 9.36124 1.75027 0 0 0
4 2 3.82792 8.45673 2.56346 0 0 0
5 3 4.23564 8.40433 3.92261 0 0 0
6 3 3.32997 8.22461 4.97213 0 0 0
7 3 3.73535 8.26948 6.30155 0 0 0
8 3 5.07065 8.48241 6.63168 0 0 0
9 3 5.4608 8.6009 7.96939 0 0 0
10 4 4.7409 8.05255 8.83489 0 0 0
11 3 6.59915 9.29178 8.40909 0 0 0
27 3 8.3472 9.58765 10.0612 0 0 0
28 3 7.19785 8.94152 9.61522 0 0 0
29 3 5.99145 8.50313 5.58874 0 0 0
30 3 5.58675 8.46599 4.26439 0 0 0
31 1 2.49107 9.06094 2.39499 0 0 0
33 6 1.81276 8.94122 0.338543 0 0 0
36 6 5.60872 8.90696 1.46068 0 0 0
38 6 2.33832 8.06033 4.80313 0 0 0
39 6 3.02964 8.17545 7.03014 0 0 0
65 6 6.99179 8.52549 5.77894 0 0 0
66 6 6.32333 8.4794 3.56316 0 0 0
67 6 2.36091 9.90069 3.07857 0 0 0
68 6 1.70349 8.32139 2.54332 0 0 0
70 2 1.26514 0.552044 5.82287 0 0 0
84 3 3.82709 1.08547 0.349053 0 0 0
87 3 5.13805 1.11758 1.21723 0 0 0
88 4 1.85446 -0.0674546 4.90362 0 0 0
114 5 3.13131 1.45075 1.1001 0 0 0
119 5 5.21145 2.00751 1.85365 0 0 0
120 5 6.1118 0.924721 0.751109 0 0 0
121 5 5.01734 0.287877 1.90844 0 0 0
122 6 3.49104 1.13684 5.00605 0 0 0
107 5 0.319351 -0.051131 2.88233 0 0 0
12 3 7.1389 10.3684 7.70546 0 0 0
13 3 8.28999 11.0073 8.14416 0 0 0
14 3 8.92018 10.6192 9.31738 0 0 0
32 6 1.99097 10.6092 0.97253 0 0 0
35 6 4.11318 10.5916 0.0449739 0 0 0
37 6 4.82679 10.3057 2.27157 0 0 0
40 6 6.68535 10.7268 6.86618 0 0 0
41 6 8.67135 11.7772 7.59549 0 0 0
62 7 19.5367 11.7188 21.3611 0 0 0
69 1 3.09756 0.349178 4.57508 0 0 0
86 3 1.32812 -1.29882 4.27759 0 0 0
98 5 0.357113 -1.95147 1.34307 0 0 0
117 5 2.24979 -1.73592 3.86512 0 0 0
118 5 1.03171 -1.90262 5.14559 0 0 0
15 5 10.3647 11.5129 9.71524 0 0 0
26 5 18.519 10.8822 21.0317 0 0 0
73 3 -1.75593 -1.80698 1.13375 0 0 0
75 3 -0.438022 -2.02137 2.09434 0 0 0
80 3 0.0863624 -1.03708 3.2974 0 0 0
90 5 -3.10119 -3.57295 0.938725 0 0 0
92 5 -4.59624 -2.82253 -0.341193 0 0 0
93 5 -2.56501 -1.25142 1.61653 0 0 0
94 5 -1.36882 -1.15477 0.378214 0 0 0
97 5 -0.421304 -3.03504 2.51125 0 0 0
108 5 -0.692527 -0.918197 4.05384 0 0 0
34 6 4.01681 8.82081 -0.229378 0 0 0
63 6 8.74431 9.27118 10.9405 0 0 0
64 6 6.81919 8.18165 10.1804 0 0 0
76 3 0.802499 1.91358 -1.56617 0 0 0
77 3 2.35902 1.88104 -2.00609 0 0 0
81 3 3.62764 1.85652 -1.05497 0 0 0
99 5 0.727151 2.56813 -0.693432 0 0 0
100 5 0.667253 0.875082 -1.28549 0 0 0
101 5 2.66548 2.75661 -2.59119 0 0 0
102 5 2.5254 1.01973 -2.6687 0 0 0
109 5 3.9585 2.90518 -1.00395 0 0 0
110 5 4.2997 1.39813 -1.78756 0 0 0
43 6 11.1529 9.58482 10.915 0 0 0
47 6 12.9768 9.5374 12.6908 0 0 0
51 6 14.7043 9.45813 14.4475 0 0 0
55 6 16.4466 9.29858 16.2627 0 0 0
59 6 18.1039 9.2894 18.3478 0 0 0
78 3 -0.467369 2.3321 -2.48605 0 0 0
82 3 -2.01713 2.16824 -2.10042 0 0 0
83 4 -3.20278 0.291548 -3.57667 0 0 0
85 4 -2.95284 1.59704 -3.11572 0 0 0
103 5 -0.447507 3.42522 -2.55189 0 0 0
104 5 -0.381686 1.96826 -3.5168 0 0 0
111 5 -2.35016 1.88918 -1.09546 0 0 0
112 5 -2.34166 3.2092 -2.13554 0 0 0
113 5 -3.68769 0.309021 -4.48751 0 0 0
116 5 -3.59156 2.27602 -3.56275 0 0 0
115 5 3.64719 0.0124709 0.241263 0 0 0
16 1 10.9885 10.6346 11.16 0 0 0
17 1 12.3186 11.2638 11.5892 0 0 0
18 1 12.814 10.5977 12.8792 0 0 0
19 1 14.1249 11.2309 13.37 0 0 0
20 1 14.5605 10.5175 14.6546 0 0 0
21 1 15.8688 11.096 15.2123 0 0 0
22 1 16.2407 10.3431 16.4966 0 0 0
23 1 17.4811 10.976 17.1433 0 0 0
24 1 17.771 10.3168 18.499 0 0 0
25 1 18.8473 11.0857 19.2753 0 0 0
42 6 10.2738 10.7272 11.9777 0 0 0
44 6 13.0527 11.1221 10.796 0 0 0
45 6 12.1685 12.3295 11.7594 0 0 0
46 6 12.0558 10.7121 13.653 0 0 0
48 6 14.8946 11.1201 12.6062 0 0 0
49 6 13.9641 12.2893 13.5744 0 0 0
50 6 13.7782 10.6338 15.4042 0 0 0
52 6 16.6663 10.9799 14.4784 0 0 0
53 6 15.7277 12.1534 15.4328 0 0 0
54 6 15.4048 10.3969 17.1943 0 0 0
56 6 18.3405 10.8485 16.4855 0 0 0
57 6 17.2891 12.0381 17.2897 0 0 0
58 6 16.8638 10.3119 19.1013 0 0 0
60 6 19.8348 10.6914 19.037 0 0 0
61 6 18.8128 12.148 19.0361 0 0 0
71 3 -2.50656 -2.95003 0.258884 0 0 0
72 3 -3.62129 -2.74314 -0.835705 0 0 0
74 3 -3.86066 -1.57745 -1.87063 0 0 0
79 3 -2.89879 -1.06499 -3.02693 0 0 0
89 5 -1.84289 -3.62387 -0.301865 0 0 0
91 5 -3.59161 -3.69965 -1.36764 0 0 0
95 5 -4.33444 -0.759561 -1.33319 0 0 0
96 5 -4.70165 -2.0224 -2.40477 0 0 0
105 5 -3.10086 -1.68348 -3.90491 0 0 0
106 5 -1.83104 -1.18286 -2.86578 0 0 0
ITEM: TIMESTEP
95
ITEM: NUMBER OF ATOMS
122
ITEM: BOX BOUNDS pp pp pp
0.0000000000000000e+00 2.0000000000000000e+01
0.0000000000000000e+00 2.0000000000000000e+01
0.0000000000000000e+00 2.0000000000000000e+01
ITEM: ATOMS id type xu yu zu vx vy vz
1 1 2.34861 9.55991 0.872075 0 0 0
2 1 3.79179 9.58461 0.385546 0 0 0
3 1 4.60578 9.27034 1.63669 0 0 0
4 2 3.74842 8.4383 2.5041 0 0 0
5 3 4.19284 8.40513 3.85667 0 0 0
6 3 3.31802 8.21008 4.92967 0 0 0
7 3 3.75943 8.23476 6.25187 0 0 0
8 3 5.09372 8.47799 6.57029 0 0 0
9 3 5.50677 8.59146 7.91343 0 0 0
10 4 4.78096 8.03963 8.76799 0 0 0
11 3 6.63804 9.28014 8.3896 0 0 0
27 3 8.27994 9.65535 10.156 0 0 0
28 3 7.16259 8.98782 9.65156 0 0 0
29 3 5.98211 8.5336 5.50145 0 0 0
30 3 5.54892 8.49007 4.18422 0 0 0
31 1 2.43253 9.08508 2.32676 0 0 0
33 6 1.7655 8.86165 0.270211 0 0 0
36 6 5.51134 8.74413 1.33412 0 0 0
38 6 2.32444 8.04356 4.77318 0 0 0
39 6 3.06814 8.09864 6.9891 0 0 0
65 6 6.98475 8.57723 5.6658 0 0 0
66 6 6.27442 8.51172 3.47252 0 0 0
67 6 2.3444 9.95747 2.97563 0 0 0
68 6 1.61701 8.38524 2.5185 0 0 0
70 2 1.1889 0.399617 6.01097 0 0 0
84 3 3.82683 1.03214 0.25953 0 0 0
87 3 5.16348 0.951399 1.08869 0 0 0
88 4 1.73528 -0.0351933 4.96963 0 0 0
114 5 3.17916 1.43496 1.03608 0 0 0
119 5 5.27458 1.7956 1.77623 0 0 0
120 5 6.12124 0.762644 0.586973 0 0 0
121 5 5.02554 0.0825762 1.72986 0 0 0
122 6 3.16656 1.41326 4.9708 0 0 0
107 5 0.0962441 -0.0549748 3.08412 0 0 0
12 3 7.24311 10.3238 7.68415 0 0 0
13 3 8.35484 10.9864 8.18195 0 0 0
14 3 8.90125 10.6593 9.41293 0 0 0
32 6 1.91851 10.5597 0.821311 0 0 0
35 6 4.0577 10.5652 -0.0110246 0 0 0
37 6 4.85099 10.2115 2.13236 0 0 0
40 6 6.85978 10.6503 6.80217 0 0 0
41 6 8.77185 11.7409 7.63611 0 0 0
62 7 19.6568 11.7138 21.4227 0 0 0
69 1 2.84297 0.602988 4.52253 0 0 0
86 3 1.30465 -1.29063 4.3256 0 0 0
98 5 0.389352 -1.8699 1.36622 0 0 0
117 5 2.252 -1.66219 3.90703 0 0 0
118 5 1.04982 -1.92643 5.18115 0 0 0
15 5 10.2943 11.6025 9.86787 0 0 0
26 5 18.7343 10.7659 21.1017 0 0 0
73 3 -1.73127 -1.86915 1.17652 0 0 0
75 3 -0.394072 -2.04674 2.11442 0 0 0
80 3 0.0226046 -1.10849 3.38655 0 0 0
90 5 -2.96506 -3.6938 0.885519 0 0 0
92 5 -4.54559 -2.8572 -0.32208 0 0 0
93 5 -2.5721 -1.41198 1.70393 0 0 0
94 5 -1.39933 -1.129 0.474805 0 0 0
97 5 -0.28964 -3.08343 2.46088 0 0 0
108 5 -0.732998 -1.18525 4.17692 0 0 0
34 6 3.94721 8.81002 -0.366631 0 0 0
63 6 8.61699 9.38808 11.0777 0 0 0
64 6 6.74358 8.26071 10.2295 0 0 0
76 3 0.785019 1.96853 -1.56576 0 0 0
77 3 2.33611 1.93246 -2.03341 0 0 0
81 3 3.62766 1.84266 -1.11714 0 0 0
99 5 0.718467 2.61989 -0.689592 0 0 0
100 5 0.629406 0.936613 -1.27762 0 0 0
101 5 2.64281 2.83421 -2.57784 0 0 0
102 5 2.48876 1.10088 -2.73878 0 0 0
109 5 3.98344 2.88096 -1.03223 0 0 0
110 5 4.27089 1.39746 -1.88413 0 0 0
43 6 11.1557 9.62161 10.9221 0 0 0
47 6 12.9743 9.5192 12.6902 0 0 0
51 6 14.772 9.39453 14.4593 0 0 0
55 6 16.5849 9.33513 16.3023 0 0 0
59 6 17.9148 9.40472 18.515 0 0 0
78 3 -0.486313 2.41485 -2.47819 0 0 0
82 3 -2.03879 2.23651 -2.1241 0 0 0
83 4 -3.13742 0.276382 -3.55943 0 0 0
85 4 -2.94187 1.60579 -3.13505 0 0 0
103 5 -0.469304 3.50971 -2.50242 0 0 0
104 5 -0.394668 2.09294 -3.52293 0 0 0
111 5 -2.38861 2.00416 -1.10641 0 0 0
112 5 -2.37314 3.27256 -2.21212 0 0 0
113 5 -3.60181 0.252234 -4.4803 0 0 0
116 5 -3.59598 2.25145 -3.61583 0 0 0
115 5 3.57313 -0.0237482 0.145858 0 0 0
16 1 10.9887 10.6535 11.2308 0 0 0
17 1 12.3252 11.2819 11.6434 0 0 0
18 1 12.8372 10.5784 12.906 0 0 0
19 1 14.1679 11.1699 13.3892 0 0 0
20 1 14.61 10.452 14.6703 0 0 0
21 1 15.9094 11.0672 15.214 0 0 0
22 1 16.2994 10.3649 16.5187 0 0 0
23 1 17.4708 11.0758 17.2192 0 0 0
24 1 17.6826 10.4661 18.6106 0 0 0
25 1 18.8305 11.1653 19.349 0 0 0
42 6 10.3069 10.6901 12.0793 0 0 0
44 6 13.0451 11.1676 10.8325 0 0 0
45 6 12.1744 12.3426 11.8449 0 0 0
46 6 12.0952 10.6909 13.6958 0 0 0
48 6 14.9278 11.0415 12.619 0 0 0
49 6 14.0358 12.2319 13.5977 0 0 0
50 6 13.8275 10.5517 15.4218 0 0 0
52 6 16.7055 10.9483 14.4786 0 0 0
53 6 15.7444 12.1279 15.4027 0 0 0
54 6 15.4411 10.3646 17.1892 0 0 0
56 6 18.3766 10.9578 16.6249 0 0 0
57 6 17.2394 12.1362 17.3215 0 0 0
58 6 16.7727 10.5812 19.2004 0 0 0
60 6 19.7863 10.8297 18.9459 0 0 0
61 6 18.7433 12.2452 19.2321 0 0 0
71 3 -2.41898 -2.99955 0.23782 0 0 0
72 3 -3.56985 -2.77425 -0.818746 0 0 0
74 3 -3.79857 -1.5975 -1.84441 0 0 0
79 3 -2.79823 -1.04943 -2.95985 0 0 0
89 5 -1.72915 -3.61318 -0.358858 0 0 0
91 5 -3.56391 -3.7256 -1.36169 0 0 0
95 5 -4.28555 -0.783859 -1.30813 0 0 0
96 5 -4.62034 -2.04704 -2.40509 0 0 0
105 5 -2.88634 -1.69627 -3.83181 0 0 0
106 5 -1.74301 -1.09007 -2.73103 0 0 0
ITEM: TIMESTEP
100
ITEM: NUMBER OF ATOMS
122
ITEM: BOX BOUNDS pp pp pp
0.0000000000000000e+00 2.0000000000000000e+01
0.0000000000000000e+00 2.0000000000000000e+01
0.0000000000000000e+00 2.0000000000000000e+01
ITEM: ATOMS id type xu yu zu vx vy vz
1 1 2.34927 9.55916 0.872734 0 0 0
2 1 3.79125 9.58388 0.385973 0 0 0
3 1 4.60586 9.26987 1.63635 0 0 0
4 2 3.74923 8.43924 2.50422 0 0 0
5 3 4.19408 8.40553 3.85626 0 0 0
6 3 3.31845 8.20955 4.92989 0 0 0
7 3 3.75904 8.23566 6.25163 0 0 0
8 3 5.09495 8.4792 6.57116 0 0 0
9 3 5.50617 8.59139 7.91131 0 0 0
10 4 4.7813 8.03999 8.76797 0 0 0
11 3 6.639 9.28124 8.38861 0 0 0
28 3 7.16259 8.98843 9.65062 0 0 0
29 3 5.98296 8.53353 5.50046 0 0 0
30 3 5.54979 8.49028 4.18418 0 0 0
31 1 2.43297 9.08526 2.32744 0 0 0
33 6 1.76552 8.8612 0.272113 0 0 0
36 6 5.51147 8.74404 1.33414 0 0 0
38 6 2.32536 8.04311 4.7734 0 0 0
39 6 3.06824 8.10097 6.98943 0 0 0
65 6 6.98615 8.57734 5.6655 0 0 0
66 6 6.27505 8.51343 3.4718 0 0 0
67 6 2.34561 9.95705 2.97651 0 0 0
68 6 1.61839 8.38606 2.52033 0 0 0
70 2 1.18937 0.40131 6.01029 0 0 0
84 3 3.82635 1.03048 0.261001 0 0 0
87 3 5.16098 0.951157 1.0888 0 0 0
114 5 3.17789 1.43296 1.03537 0 0 0
119 5 5.27511 1.79628 1.77571 0 0 0
120 5 6.11992 0.761125 0.587768 0 0 0
121 5 5.02225 0.0830908 1.73178 0 0 0
122 6 3.16558 1.41316 4.97238 0 0 0
69 1 2.84438 0.60246 4.52397 0 0 0
88 4 1.73602 -0.0342598 4.96969 0 0 0
107 5 0.095958 -0.0548214 3.08513 0 0 0
12 3 7.24214 10.3237 7.684 0 0 0
13 3 8.35483 10.987 8.18098 0 0 0
14 3 8.90112 10.6594 9.41152 0 0 0
32 6 1.91838 10.5584 0.822337 0 0 0
37 6 4.85116 10.2104 2.13197 0 0 0
40 6 6.85932 10.6512 6.801 0 0 0
41 6 8.77244 11.7401 7.635 0 0 0
86 3 1.30607 -1.29077 4.32499 0 0 0
98 5 0.38828 -1.86775 1.36575 0 0 0
117 5 2.25429 -1.659 3.90533 0 0 0
118 5 1.05339 -1.92763 5.18082 0 0 0
80 3 0.0240686 -1.10723 3.38815 0 0 0
115 5 3.57384 -0.0257513 0.144636 0 0 0
62 7 19.6574 11.7119 21.4221 0 0 0
15 5 10.2932 11.6034 9.86871 0 0 0
26 5 18.7337 10.7665 21.1008 0 0 0
73 3 -1.7326 -1.86877 1.17714 0 0 0
75 3 -0.395225 -2.0468 2.11363 0 0 0
90 5 -2.96508 -3.69497 0.886149 0 0 0
93 5 -2.57406 -1.41129 1.70503 0 0 0
94 5 -1.40005 -1.12762 0.476161 0 0 0
97 5 -0.290919 -3.08327 2.4612 0 0 0
108 5 -0.731888 -1.18585 4.17778 0 0 0
71 3 -2.41876 -2.99983 0.238378 0 0 0
27 3 8.27874 9.65557 10.1548 0 0 0
34 6 3.94586 8.80983 -0.365751 0 0 0
63 6 8.61599 9.38859 11.0768 0 0 0
64 6 6.74333 8.26022 10.2285 0 0 0
76 3 0.784438 1.97001 -1.56694 0 0 0
77 3 2.33603 1.93273 -2.03313 0 0 0
81 3 3.62674 1.84241 -1.11788 0 0 0
99 5 0.720564 2.61858 -0.689876 0 0 0
100 5 0.629417 0.937683 -1.27752 0 0 0
101 5 2.64392 2.83388 -2.57717 0 0 0
102 5 2.49001 1.10223 -2.73821 0 0 0
109 5 3.98235 2.88017 -1.03108 0 0 0
110 5 4.27036 1.39658 -1.88315 0 0 0
43 6 11.1546 9.62117 10.9215 0 0 0
47 6 12.9745 9.51821 12.691 0 0 0
51 6 14.7729 9.39545 14.4588 0 0 0
55 6 16.5841 9.33501 16.303 0 0 0
59 6 17.9146 9.40506 18.5161 0 0 0
78 3 -0.486194 2.41506 -2.4785 0 0 0
82 3 -2.0384 2.23566 -2.12305 0 0 0
83 4 -3.13925 0.277258 -3.55934 0 0 0
85 4 -2.94181 1.60487 -3.1339 0 0 0
103 5 -0.469344 3.50971 -2.50263 0 0 0
104 5 -0.39463 2.09425 -3.52299 0 0 0
111 5 -2.38788 2.00152 -1.10764 0 0 0
112 5 -2.37363 3.27069 -2.21258 0 0 0
113 5 -3.60272 0.253634 -4.48108 0 0 0
116 5 -3.59554 2.25028 -3.61374 0 0 0
35 6 4.05683 10.5638 -0.0117924 0 0 0
92 5 -4.54573 -2.85859 -0.324765 0 0 0
16 1 10.9878 10.653 11.2311 0 0 0
17 1 12.3244 11.2809 11.6442 0 0 0
18 1 12.8374 10.5774 12.9069 0 0 0
19 1 14.1676 11.1702 13.3886 0 0 0
20 1 14.6116 10.4528 14.6704 0 0 0
21 1 15.9084 11.0676 15.2136 0 0 0
22 1 16.3002 10.3648 16.521 0 0 0
23 1 17.4694 11.0752 17.2178 0 0 0
24 1 17.6831 10.4662 18.6113 0 0 0
25 1 18.8297 11.1664 19.3481 0 0 0
42 6 10.3057 10.6889 12.0795 0 0 0
44 6 13.0447 11.1665 10.8335 0 0 0
45 6 12.1741 12.3417 11.8467 0 0 0
46 6 12.0955 10.6897 13.6971 0 0 0
48 6 14.9275 11.0416 12.6179 0 0 0
49 6 14.0354 12.232 13.5964 0 0 0
50 6 13.8274 10.552 15.4211 0 0 0
52 6 16.7063 10.9485 14.4802 0 0 0
53 6 15.745 12.1282 15.4035 0 0 0
54 6 15.4408 10.3643 17.1902 0 0 0
56 6 18.3761 10.9578 16.6242 0 0 0
57 6 17.2389 12.1356 17.3219 0 0 0
58 6 16.7731 10.5824 19.2001 0 0 0
60 6 19.7862 10.832 18.9457 0 0 0
61 6 18.7423 12.2461 19.2322 0 0 0
72 3 -3.56896 -2.77485 -0.819987 0 0 0
74 3 -3.79813 -1.59738 -1.84502 0 0 0
79 3 -2.79872 -1.05014 -2.96106 0 0 0
89 5 -1.7264 -3.61073 -0.359138 0 0 0
91 5 -3.56021 -3.72546 -1.36345 0 0 0
95 5 -4.2842 -0.783009 -1.30706 0 0 0
96 5 -4.6213 -2.04583 -2.405 0 0 0
105 5 -2.88965 -1.69755 -3.83389 0 0 0
106 5 -1.74261 -1.09186 -2.73362 0 0 0
ITEM: TIMESTEP
104
ITEM: NUMBER OF ATOMS
122
ITEM: BOX BOUNDS pp pp pp
0.0000000000000000e+00 2.0000000000000000e+01
0.0000000000000000e+00 2.0000000000000000e+01
0.0000000000000000e+00 2.0000000000000000e+01
ITEM: ATOMS id type xu yu zu vx vy vz
1 1 2.34927 9.55869 0.873568 0 0 0
2 1 3.79092 9.58336 0.38611 0 0 0
3 1 4.60612 9.26959 1.63616 0 0 0
4 2 3.74978 8.43923 2.50445 0 0 0
5 3 4.19477 8.40559 3.85633 0 0 0
6 3 3.31905 8.20952 4.92981 0 0 0
7 3 3.75942 8.23653 6.25165 0 0 0
8 3 5.09535 8.47961 6.5706 0 0 0
9 3 5.50635 8.59176 7.91086 0 0 0
10 4 4.78159 8.04035 8.76758 0 0 0
11 3 6.6389 9.2816 8.38793 0 0 0
28 3 7.16231 8.98852 9.64973 0 0 0
29 3 5.98373 8.53368 5.5002 0 0 0
30 3 5.55055 8.49077 4.18388 0 0 0
31 1 2.43364 9.08536 2.3283 0 0 0
33 6 1.76538 8.86048 0.273492 0 0 0
36 6 5.51172 8.74377 1.33395 0 0 0
38 6 2.32605 8.04264 4.77347 0 0 0
39 6 3.06841 8.10286 6.98953 0 0 0
65 6 6.987 8.57736 5.66519 0 0 0
66 6 6.27565 8.51469 3.47138 0 0 0
67 6 2.34666 9.95717 2.97732 0 0 0
68 6 1.61917 8.38636 2.52182 0 0 0
70 2 1.18945 0.402671 6.00971 0 0 0
84 3 3.82562 1.02936 0.261015 0 0 0
87 3 5.15983 0.950862 1.08937 0 0 0
114 5 3.17666 1.43102 1.03533 0 0 0
119 5 5.27509 1.79672 1.77524 0 0 0
120 5 6.11858 0.759448 0.588618 0 0 0
121 5 5.01976 0.0837385 1.73333 0 0 0
122 6 3.16523 1.41329 4.97378 0 0 0
69 1 2.84544 0.602289 4.52507 0 0 0
88 4 1.73662 -0.0340023 4.9698 0 0 0
107 5 0.0957922 -0.0545325 3.086 0 0 0
12 3 7.24195 10.3243 7.68321 0 0 0
13 3 8.35485 10.987 8.18009 0 0 0
14 3 8.9008 10.6596 9.41088 0 0 0
32 6 1.9182 10.5577 0.823131 0 0 0
37 6 4.85143 10.2101 2.13172 0 0 0
40 6 6.85894 10.6518 6.8003 0 0 0
41 6 8.77291 11.7397 7.63391 0 0 0
86 3 1.30734 -1.29048 4.32466 0 0 0
98 5 0.387367 -1.86623 1.36582 0 0 0
117 5 2.2558 -1.65657 3.90361 0 0 0
118 5 1.05651 -1.92858 5.18019 0 0 0
80 3 0.0245289 -1.10708 3.38861 0 0 0
115 5 3.57433 -0.0271644 0.143806 0 0 0
62 7 19.6581 11.7105 21.4216 0 0 0
15 5 10.2923 11.6039 9.86946 0 0 0
26 5 18.7329 10.7667 21.1001 0 0 0
73 3 -1.73352 -1.86816 1.17786 0 0 0
75 3 -0.395748 -2.04608 2.11398 0 0 0
90 5 -2.9647 -3.69573 0.885945 0 0 0
93 5 -2.57531 -1.4111 1.7059 0 0 0
94 5 -1.40101 -1.1267 0.476969 0 0 0
97 5 -0.291408 -3.0826 2.46159 0 0 0
108 5 -0.731046 -1.18633 4.17841 0 0 0