ITEM: TIMESTEP
0
ITEM: NUMBER OF ATOMS
1280
ITEM: BOX BOUNDS pp pp ss
0.0000000000000000e+00 4.5735666000000002e+01
0.0000000000000000e+00 3.2339998999999999e+01
4.0418943469999995e+00 4.0358905653000001e+01
ITEM: ATOMS id type xu yu zu vx vy vz
850 5 1.47959 2.0241 4.05356 0 0 0
851 4 3.66433 1.58091 5.82988 0 0 0
853 4 7.18801 0.4745 8.23415 0 0 0
854 5 2.34194 0.87053 8.23722 0 0 0
957 4 8.04555 15.4921 4.05153 0 0 0
950 5 9.96541 11.65 8.23956 0 0 0
861 4 0.42361 4.7122 4.05102 0 0 0
862 5 1.47959 7.41408 4.05357 0 0 0
863 4 3.66433 6.97093 5.82989 0 0 0
864 5 5.86522 5.15963 5.83004 0 0 0
865 4 7.188 5.86451 8.23419 0 0 0
866 5 2.34193 6.26053 8.23719 0 0 0
947 4 11.2854 12.3615 5.82901 0 0 0
946 5 9.10332 12.8036 4.05375 0 0 0
873 4 0.4236 10.1022 4.05103 0 0 0
874 5 1.47958 12.8041 4.05357 0 0 0
875 4 3.66433 12.3609 5.82986 0 0 0
876 5 5.86522 10.5496 5.83005 0 0 0
877 4 7.18801 11.2545 8.23412 0 0 0
878 5 2.34193 11.6505 8.23724 0 0 0
945 4 8.04555 10.1021 4.05154 0 0 0
938 5 9.96542 6.26002 8.23951 0 0 0
885 4 0.4236 15.4922 4.05103 0 0 0
888 5 5.86522 15.9396 5.83007 0 0 0
922 5 9.10332 2.02362 4.05375 0 0 0
923 4 11.2854 1.58143 5.82904 0 0 0
926 5 9.96543 0.87002 8.23954 0 0 0
935 4 11.2854 6.97144 5.82904 0 0 0
933 4 8.04555 4.71208 4.05154 0 0 0
934 5 9.10332 7.4136 4.05376 0 0 0
855 4 3.37652 0.47094 10.8184 0 0 0
856 5 6.15389 0.87558 10.8221 0 0 0
951 4 10.9994 11.2516 10.8158 0 0 0
867 4 3.37651 5.86092 10.8184 0 0 0
868 5 6.1539 6.26558 10.8221 0 0 0
879 4 3.3765 11.2509 10.8184 0 0 0
880 5 6.15389 11.6556 10.8221 0 0 0
939 4 10.9994 5.8616 10.8158 0 0 0
927 4 10.9994 0.47162 10.8158 0 0 0
966 5 9.67666 15.9388 13.2283 0 0 0
954 5 9.67668 10.5488 13.2283 0 0 0
942 5 9.6767 5.15882 13.2282 0 0 0
895 4 4.23266 15.4926 15.0055 0 0 0
894 5 2.05576 15.9387 13.2271 0 0 0
884 5 5.29248 12.8038 15.0031 0 0 0
883 4 4.23266 10.1026 15.0055 0 0 0
882 5 2.05578 10.5487 13.2271 0 0 0
881 4 7.47347 12.3613 13.2262 0 0 0
872 5 5.29249 7.41374 15.0031 0 0 0
871 4 4.23266 4.71258 15.0055 0 0 0
870 5 2.0558 5.15867 13.227 0 0 0
869 4 7.47346 6.97127 13.2262 0 0 0
860 5 5.2925 2.02372 15.0031 0 0 0
857 4 7.47345 1.58128 13.2262 0 0 0
425 1 11.4339 10.78 20.7565 0 0 0
815 2 10.6896 5.5964 21.8099 0 0 0
797 1 9.5402 5.9836 21.7282 0 0 0
796 1 11.4339 5.39 20.7565 0 0 0
444 2 10.6896 10.9864 21.8099 0 0 0
426 1 9.5402 11.3736 21.7282 0 0 0
844 3 11.2357 3.9288 23.0306 0 0 0
835 3 10.6644 6.6314 24.3719 0 0 0
834 3 9.5609 5.2554 24.3445 0 0 0
825 3 11.2401 3.8806 25.6054 0 0 0
813 2 11.3031 5.019 23.0721 0 0 0
807 2 10.6169 5.54 24.3541 0 0 0
802 2 11.2881 4.9729 25.6232 0 0 0
473 3 11.2357 9.3188 23.0306 0 0 0
464 3 10.6644 12.0214 24.3719 0 0 0
463 3 9.5609 10.6454 24.3445 0 0 0
454 3 11.2401 9.2706 25.6054 0 0 0
442 2 11.3031 10.409 23.0721 0 0 0
436 2 10.6169 10.93 24.3541 0 0 0
431 2 11.2881 10.3629 25.6232 0 0 0
420 3 11.2357 14.7088 23.0306 0 0 0
410 3 9.5609 16.0354 24.3445 0 0 0
401 3 11.2401 14.6606 25.6054 0 0 0
389 2 11.3031 15.799 23.0721 0 0 0
378 2 11.2881 15.7529 25.6232 0 0 0
374 2 11.2771 15.7237 28.1713 0 0 0
823 3 11.2123 3.8528 30.7482 0 0 0
821 3 9.5459 5.2081 26.8924 0 0 0
820 3 10.6415 6.5904 26.9127 0 0 0
819 3 9.5388 5.1849 29.4387 0 0 0
818 3 10.6285 6.5724 29.4452 0 0 0
816 3 11.2307 3.8517 28.1642 0 0 0
801 2 11.2771 4.9437 30.7214 0 0 0
800 2 10.6004 5.4979 26.9003 0 0 0
799 2 10.5907 5.4805 29.4453 0 0 0
798 2 11.2771 4.9437 28.1713 0 0 0
452 3 11.2123 9.2428 30.7482 0 0 0
450 3 9.5459 10.5981 26.8924 0 0 0
449 3 10.6415 11.9804 26.9127 0 0 0
448 3 9.5388 10.5749 29.4387 0 0 0
447 3 10.6285 11.9624 29.4452 0 0 0
445 3 11.2307 9.2417 28.1642 0 0 0
430 2 11.2771 10.3337 30.7214 0 0 0
429 2 10.6004 10.8879 26.9003 0 0 0
428 2 10.5907 10.8705 29.4453 0 0 0
427 2 11.2771 10.3337 28.1713 0 0 0
399 3 11.2123 14.6328 30.7482 0 0 0
397 3 9.5459 15.9881 26.8924 0 0 0
395 3 9.5388 15.9649 29.4387 0 0 0
392 3 11.2307 14.6317 28.1642 0 0 0
377 2 11.2771 15.7237 30.7214 0 0 0
843 3 7.7391 3.9223 33.1113 0 0 0
840 3 8.4811 5.6302 31.6384 0 0 0
833 3 11.2783 5.2358 32.8579 0 0 0
832 3 10.6947 6.62 31.9711 0 0 0
812 2 8.8043 4.1303 33.0467 0 0 0
810 2 9.2217 5.0786 32.2124 0 0 0
806 2 10.6573 5.5287 32.0093 0 0 0
472 3 7.7391 9.3123 33.1113 0 0 0
469 3 8.4811 11.0202 31.6384 0 0 0
462 3 11.2783 10.6258 32.8579 0 0 0
461 3 10.6947 12.01 31.9711 0 0 0
441 2 8.8043 9.5203 33.0467 0 0 0
439 2 9.2217 10.4686 32.2124 0 0 0
435 2 10.6573 10.9187 32.0093 0 0 0
419 3 7.7391 14.7023 33.1113 0 0 0
409 3 11.2783 16.0158 32.8579 0 0 0
388 2 8.8043 14.9103 33.0467 0 0 0
386 2 9.2217 15.8586 32.2124 0 0 0
839 3 9.2665 2.2412 33.9401 0 0 0
838 3 10.6861 3.1638 33.4946 0 0 0
831 3 10.1832 4.8227 35.3192 0 0 0
830 3 8.7695 3.8747 35.7783 0 0 0
809 2 9.6821 3.2521 33.9161 0 0 0
805 2 9.7728 3.8102 35.3503 0 0 0
468 3 9.2665 7.6312 33.9401 0 0 0
467 3 10.6861 8.5538 33.4946 0 0 0
460 3 10.1832 10.2127 35.3192 0 0 0
459 3 8.7695 9.2647 35.7783 0 0 0
438 2 9.6821 8.6421 33.9161 0 0 0
434 2 9.7728 9.2002 35.3503 0 0 0
415 3 9.2665 13.0212 33.9401 0 0 0
414 3 10.6861 13.9438 33.4946 0 0 0
407 3 10.1832 15.6027 35.3192 0 0 0
406 3 8.7695 14.6547 35.7783 0 0 0
385 2 9.6821 14.0321 33.9161 0 0 0
381 2 9.7728 14.5902 35.3503 0 0 0
379 2 10.662 13.7027 36.2469 0 0 0
837 3 11.4284 2.9774 39.6582 0 0 0
836 3 11.1199 1.5815 38.6369 0 0 0
829 3 11.2091 4.4905 37.6523 0 0 0
828 3 9.7427 3.6193 38.0757 0 0 0
826 3 10.2468 1.9126 36.2843 0 0 0
804 2 10.7533 3.4973 37.679 0 0 0
803 2 10.662 2.9227 36.2469 0 0 0
466 3 11.4284 8.3674 39.6582 0 0 0
465 3 11.1199 6.9715 38.6369 0 0 0
458 3 11.2091 9.8805 37.6523 0 0 0
457 3 9.7427 9.0093 38.0757 0 0 0
455 3 10.2468 7.3026 36.2843 0 0 0
433 2 10.7533 8.8873 37.679 0 0 0
432 2 10.662 8.3127 36.2469 0 0 0
413 3 11.4284 13.7574 39.6582 0 0 0
412 3 11.1199 12.3615 38.6369 0 0 0
405 3 11.2091 15.2705 37.6523 0 0 0
404 3 9.7427 14.3993 38.0757 0 0 0
402 3 10.2468 12.6926 36.2843 0 0 0
380 2 10.7533 14.2773 37.679 0 0 0
849 4 0.4236 -0.67781 4.05101 0 0 0
852 5 5.86521 -0.23036 5.83006 0 0 0
886 5 1.47957 18.1941 4.05356 0 0 0
887 4 3.66434 17.7509 5.82983 0 0 0
889 4 7.18803 16.6445 8.234 0 0 0
890 5 2.34193 17.0405 8.23733 0 0 0
986 5 9.96542 27.82 8.23962 0 0 0
983 4 11.2854 28.5314 5.829 0 0 0
897 4 0.42359 20.8822 4.05102 0 0 0
898 5 1.47957 23.5841 4.05355 0 0 0
899 4 3.66434 23.1409 5.82982 0 0 0
900 5 5.86521 21.3296 5.83009 0 0 0
901 4 7.18804 22.0345 8.23396 0 0 0
902 5 2.34193 22.4305 8.23735 0 0 0
982 5 9.10331 28.9736 4.05373 0 0 0
981 4 8.04555 26.2721 4.05152 0 0 0
909 4 0.42359 26.2722 4.05101 0 0 0
910 5 1.47957 28.9741 4.05355 0 0 0
911 4 3.66434 28.5309 5.82985 0 0 0
912 5 5.8652 26.7196 5.83008 0 0 0
913 4 7.18802 27.4245 8.23404 0 0 0
914 5 2.34194 27.8205 8.2373 0 0 0
974 5 9.96541 22.43 8.23967 0 0 0
971 4 11.2854 23.1415 5.82897 0 0 0
921 4 8.04556 -0.67793 4.05153 0 0 0
958 5 9.10332 18.1936 4.05373 0 0 0
959 4 11.2854 17.7515 5.82898 0 0 0
962 5 9.96541 17.04 8.23964 0 0 0
970 5 9.10331 23.5836 4.05373 0 0 0
969 4 8.04555 20.8821 4.05152 0 0 0
891 4 3.3765 16.6409 10.8183 0 0 0
987 4 10.9994 27.4216 10.8157 0 0 0
892 5 6.15387 17.0456 10.8223 0 0 0
903 4 3.37651 22.031 10.8183 0 0 0
904 5 6.15386 22.4356 10.8223 0 0 0
915 4 3.37651 27.421 10.8183 0 0 0
975 4 10.9994 22.0316 10.8157 0 0 0
916 5 6.15387 27.8256 10.8222 0 0 0
963 4 10.9994 16.6416 10.8157 0 0 0
990 5 9.67669 26.7188 13.2283 0 0 0
978 5 9.67667 21.3288 13.2283 0 0 0
930 5 9.67671 -0.23119 13.2283 0 0 0
920 5 5.29249 28.9737 15.0031 0 0 0
919 4 4.23264 26.2726 15.0055 0 0 0
918 5 2.05579 26.7186 13.2271 0 0 0
917 4 7.47344 28.5313 13.2262 0 0 0
908 5 5.29249 23.5837 15.0032 0 0 0
907 4 4.23265 20.8826 15.0055 0 0 0
906 5 2.05577 21.3287 13.2271 0 0 0
905 4 7.47345 23.1413 13.2262 0 0 0
896 5 5.29248 18.1938 15.0031 0 0 0
893 4 7.47346 17.7513 13.2261 0 0 0
859 4 4.23265 -0.6774 15.0055 0 0 0
858 5 2.05581 -0.23134 13.2271 0 0 0
319 1 11.4339 21.56 20.7565 0 0 0
391 2 10.6896 16.3764 21.8099 0 0 0
373 1 9.5402 16.7636 21.7282 0 0 0
372 1 11.4339 16.17 20.7565 0 0 0
338 2 10.6896 21.7664 21.8099 0 0 0
320 1 9.5402 22.1536 21.7282 0 0 0
411 3 10.6644 17.4114 24.3719 0 0 0
383 2 10.6169 16.32 24.3541 0 0 0
367 3 11.2357 20.0988 23.0306 0 0 0
358 3 10.6644 22.8014 24.3719 0 0 0
357 3 9.5609 21.4254 24.3445 0 0 0
348 3 11.2401 20.0506 25.6054 0 0 0
336 2 11.3031 21.189 23.0721 0 0 0
330 2 10.6169 21.71 24.3541 0 0 0
325 2 11.2881 21.1429 25.6232 0 0 0
321 2 11.2771 21.1137 28.1713 0 0 0
396 3 10.6415 17.3704 26.9127 0 0 0
394 3 10.6285 17.3524 29.4452 0 0 0
376 2 10.6004 16.2779 26.9003 0 0 0
375 2 10.5907 16.2605 29.4453 0 0 0
346 3 11.2123 20.0228 30.7482 0 0 0
344 3 9.5459 21.3781 26.8924 0 0 0
343 3 10.6415 22.7604 26.9127 0 0 0
342 3 9.5388 21.3549 29.4387 0 0 0
341 3 10.6285 22.7424 29.4452 0 0 0
339 3 11.2307 20.0217 28.1642 0 0 0
324 2 11.2771 21.1137 30.7214 0 0 0
323 2 10.6004 21.6679 26.9003 0 0 0
322 2 10.5907 21.6505 29.4453 0 0 0
416 3 8.4811 16.4102 31.6384 0 0 0
408 3 10.6947 17.4 31.9711 0 0 0
382 2 10.6573 16.3087 32.0093 0 0 0
366 3 7.7391 20.0923 33.1113 0 0 0
363 3 8.4811 21.8002 31.6384 0 0 0
356 3 11.2783 21.4058 32.8579 0 0 0
355 3 10.6947 22.79 31.9711 0 0 0
335 2 8.8043 20.3003 33.0467 0 0 0
333 2 9.2217 21.2486 32.2124 0 0 0
329 2 10.6573 21.6987 32.0093 0 0 0
362 3 9.2665 18.4112 33.9401 0 0 0
361 3 10.6861 19.3338 33.4946 0 0 0
354 3 10.1832 20.9927 35.3192 0 0 0
353 3 8.7695 20.0447 35.7783 0 0 0
332 2 9.6821 19.4221 33.9161 0 0 0
328 2 9.7728 19.9802 35.3503 0 0 0
326 2 10.662 19.0927 36.2469 0 0 0
360 3 11.4284 19.1474 39.6582 0 0 0
359 3 11.1199 17.7515 38.6369 0 0 0
352 3 11.2091 20.6605 37.6523 0 0 0
351 3 9.7427 19.7893 38.0757 0 0 0
349 3 10.2468 18.0826 36.2843 0 0 0
327 2 10.7533 19.6673 37.679 0 0 0
925 4 14.8084 0.47458 8.23533 0 0 0
1032 5 21.1128 15.9383 5.82786 0 0 0
936 5 13.4903 5.15916 5.82962 0 0 0
937 4 14.8084 5.86459 8.23537 0 0 0
1029 4 15.6668 15.4926 4.05178 0 0 0
948 5 13.4903 10.5492 5.82963 0 0 0
949 4 14.8084 11.2546 8.23531 0 0 0
1022 5 17.5901 11.651 8.23575 0 0 0
960 5 13.4903 15.9392 5.82965 0 0 0
994 5 16.7271 2.0235 4.05416 0 0 0
995 4 18.9058 1.58169 5.83025 0 0 0
997 4 22.4307 0.47559 8.24064 0 0 0
998 5 17.5901 0.87102 8.23573 0 0 0
1021 4 22.4307 11.2556 8.24064 0 0 0
1020 5 21.1128 10.5483 5.82783 0 0 0
1005 4 15.6668 4.71259 4.05178 0 0 0
1006 5 16.7271 7.41348 4.05416 0 0 0
1007 4 18.9057 6.9717 5.83025 0 0 0
1008 5 21.1128 5.1583 5.82782 0 0 0
1009 4 22.4307 5.8656 8.24068 0 0 0
1010 5 17.59 6.26102 8.2357 0 0 0
1019 4 18.9057 12.3617 5.83023 0 0 0
1018 5 16.7272 12.8035 4.05415 0 0 0
1017 4 15.6668 10.1026 4.05178 0 0 0
928 5 13.7764 0.87522 10.8207 0 0 0
940 5 13.7764 6.26522 10.8207 0 0 0
952 5 13.7764 11.6552 10.8207 0 0 0
1024 5 21.3995 11.6542 10.815 0 0 0
1023 4 18.6219 11.2509 10.8195 0 0 0
999 4 18.6219 0.47088 10.8195 0 0 0
1000 5 21.3995 0.87421 10.815 0 0 0
1011 4 18.6219 5.86087 10.8195 0 0 0
1012 5 21.3995 6.26421 10.815 0 0 0
1039 4 19.4795 15.4923 15.006 0 0 0
1038 5 17.2991 15.9395 13.2266 0 0 0
1028 5 20.5367 12.8039 15.0036 0 0 0
1027 4 19.4795 10.1023 15.006 0 0 0
1026 5 17.2991 10.5495 13.2266 0 0 0
1025 4 22.7207 12.3615 13.2287 0 0 0
1016 5 20.5367 7.41392 15.0036 0 0 0
1015 4 19.4795 4.71228 15.006 0 0 0
1014 5 17.2991 5.15945 13.2266 0 0 0
1013 4 22.7207 6.97154 13.2287 0 0 0
1004 5 20.5367 2.02391 15.0036 0 0 0
1001 4 22.7207 1.58156 13.2287 0 0 0
967 4 11.8562 15.4922 15.006 0 0 0
956 5 12.9143 12.8037 15.0035 0 0 0
955 4 11.8562 10.1022 15.0059 0 0 0
953 4 15.0972 12.3609 13.2264 0 0 0
944 5 12.9143 7.41373 15.0035 0 0 0
943 4 11.8562 4.71222 15.0059 0 0 0
941 4 15.0972 6.97094 13.2264 0 0 0
932 5 12.9143 2.02372 15.0035 0 0 0
929 4 15.0972 1.58096 13.2264 0 0 0
213 1 19.0565 10.78 20.7565 0 0 0
285 2 18.3122 5.5964 21.8099 0 0 0
267 1 17.1629 5.9836 21.7282 0 0 0
266 1 19.0565 5.39 20.7565 0 0 0
232 2 18.3122 10.9864 21.8099 0 0 0
214 1 17.1629 11.3736 21.7282 0 0 0
845 3 12.3653 5.2769 23.1004 0 0 0
824 3 12.3436 5.2566 25.6351 0 0 0
474 3 12.3653 10.6669 23.1004 0 0 0
453 3 12.3436 10.6466 25.6351 0 0 0
421 3 12.3653 16.0569 23.1004 0 0 0
400 3 12.3436 16.0366 25.6351 0 0 0
315 3 19.9879 5.2769 23.1004 0 0 0
314 3 18.8583 3.9288 23.0306 0 0 0
305 3 18.2871 6.6314 24.3719 0 0 0
304 3 17.1836 5.2554 24.3445 0 0 0
295 3 18.8627 3.8806 25.6054 0 0 0
294 3 19.9662 5.2566 25.6351 0 0 0
283 2 18.9257 5.019 23.0721 0 0 0
277 2 18.2395 5.54 24.3541 0 0 0
272 2 18.9107 4.9729 25.6232 0 0 0
262 3 19.9879 10.6669 23.1004 0 0 0
261 3 18.8583 9.3188 23.0306 0 0 0
252 3 18.2871 12.0214 24.3719 0 0 0
251 3 17.1836 10.6454 24.3445 0 0 0
242 3 18.8627 9.2706 25.6054 0 0 0
241 3 19.9662 10.6466 25.6351 0 0 0
230 2 18.9257 10.409 23.0721 0 0 0
224 2 18.2395 10.93 24.3541 0 0 0
219 2 18.9107 10.3629 25.6232 0 0 0
209 3 19.9879 16.0569 23.1004 0 0 0
208 3 18.8583 14.7088 23.0306 0 0 0
198 3 17.1836 16.0354 24.3445 0 0 0
189 3 18.8627 14.6606 25.6054 0 0 0
188 3 19.9662 16.0366 25.6351 0 0 0
177 2 18.9257 15.799 23.0721 0 0 0
166 2 18.9107 15.7529 25.6232 0 0 0
162 2 18.8997 15.7237 28.1713 0 0 0
822 3 12.3378 5.205 30.6946 0 0 0
817 3 12.3319 5.2301 28.1778 0 0 0
451 3 12.3378 10.595 30.6946 0 0 0
446 3 12.3319 10.6201 28.1778 0 0 0
398 3 12.3378 15.985 30.6946 0 0 0
393 3 12.3319 16.0101 28.1778 0 0 0
293 3 18.8349 3.8528 30.7482 0 0 0
292 3 19.9604 5.205 30.6946 0 0 0
291 3 17.1685 5.2081 26.8924 0 0 0
290 3 18.2641 6.5904 26.9127 0 0 0
289 3 17.1614 5.1849 29.4387 0 0 0
288 3 18.2511 6.5724 29.4452 0 0 0
287 3 19.9545 5.2301 28.1778 0 0 0
286 3 18.8533 3.8517 28.1642 0 0 0
271 2 18.8997 4.9437 30.7214 0 0 0
270 2 18.223 5.4979 26.9003 0 0 0
269 2 18.2133 5.4805 29.4453 0 0 0
268 2 18.8997 4.9437 28.1713 0 0 0
240 3 18.8349 9.2428 30.7482 0 0 0
239 3 19.9604 10.595 30.6946 0 0 0
238 3 17.1685 10.5981 26.8924 0 0 0
237 3 18.2641 11.9804 26.9127 0 0 0
236 3 17.1614 10.5749 29.4387 0 0 0
235 3 18.2511 11.9624 29.4452 0 0 0
234 3 19.9545 10.6201 28.1778 0 0 0
233 3 18.8533 9.2417 28.1642 0 0 0
218 2 18.8997 10.3337 30.7214 0 0 0
217 2 18.223 10.8879 26.9003 0 0 0
216 2 18.2133 10.8705 29.4453 0 0 0
215 2 18.8997 10.3337 28.1713 0 0 0
187 3 18.8349 14.6328 30.7482 0 0 0
186 3 19.9604 15.985 30.6946 0 0 0
185 3 17.1685 15.9881 26.8924 0 0 0
183 3 17.1614 15.9649 29.4387 0 0 0
181 3 19.9545 16.0101 28.1778 0 0 0
180 3 18.8533 14.6317 28.1642 0 0 0
165 2 18.8997 15.7237 30.7214 0 0 0
313 3 15.3617 3.9223 33.1113 0 0 0
310 3 16.1037 5.6302 31.6384 0 0 0
303 3 18.9009 5.2358 32.8579 0 0 0
302 3 18.3173 6.62 31.9711 0 0 0
282 2 16.4269 4.1303 33.0467 0 0 0
280 2 16.8443 5.0786 32.2124 0 0 0
276 2 18.2799 5.5287 32.0093 0 0 0
260 3 15.3617 9.3123 33.1113 0 0 0
257 3 16.1037 11.0202 31.6384 0 0 0
250 3 18.9009 10.6258 32.8579 0 0 0
249 3 18.3173 12.01 31.9711 0 0 0
229 2 16.4269 9.5203 33.0467 0 0 0
227 2 16.8443 10.4686 32.2124 0 0 0
223 2 18.2799 10.9187 32.0093 0 0 0
207 3 15.3617 14.7023 33.1113 0 0 0
197 3 18.9009 16.0158 32.8579 0 0 0
176 2 16.4269 14.9103 33.0467 0 0 0
174 2 16.8443 15.8586 32.2124 0 0 0
827 3 11.6587 2.8561 35.8064 0 0 0
456 3 11.6587 8.2461 35.8064 0 0 0
403 3 11.6587 13.6361 35.8064 0 0 0
309 3 16.8891 2.2412 33.9401 0 0 0
308 3 18.3087 3.1638 33.4946 0 0 0
301 3 17.8058 4.8227 35.3192 0 0 0
300 3 16.3921 3.8747 35.7783 0 0 0
297 3 19.2813 2.8561 35.8064 0 0 0
279 2 17.3048 3.2521 33.9161 0 0 0
275 2 17.3954 3.8102 35.3503 0 0 0
256 3 16.8891 7.6312 33.9401 0 0 0
255 3 18.3087 8.5538 33.4946 0 0 0
248 3 17.8058 10.2127 35.3192 0 0 0
247 3 16.3921 9.2647 35.7783 0 0 0
244 3 19.2813 8.2461 35.8064 0 0 0
226 2 17.3048 8.6421 33.9161 0 0 0
222 2 17.3954 9.2002 35.3503 0 0 0
203 3 16.8891 13.0212 33.9401 0 0 0
202 3 18.3087 13.9438 33.4946 0 0 0
195 3 17.8058 15.6027 35.3192 0 0 0
194 3 16.3921 14.6547 35.7783 0 0 0
191 3 19.2813 13.6361 35.8064 0 0 0
173 2 17.3048 14.0321 33.9161 0 0 0
169 2 17.3954 14.5902 35.3503 0 0 0
167 2 18.2846 13.7027 36.2469 0 0 0
848 3 14.8844 1.6595 39.105 0 0 0
847 3 13.725 2.1485 40.35 0 0 0
846 3 13.4425 0.6754 39.4028 0 0 0
842 3 13.4684 3.531 38.2707 0 0 0
841 3 13.2034 2.0648 37.3277 0 0 0
814 2 13.8227 1.6986 39.3592 0 0 0
811 2 13.054 2.5205 38.3085 0 0 0
808 2 11.5468 2.5878 38.6446 0 0 0
477 3 14.8844 7.0495 39.105 0 0 0
476 3 13.725 7.5385 40.35 0 0 0
475 3 13.4425 6.0654 39.4028 0 0 0
471 3 13.4684 8.921 38.2707 0 0 0
470 3 13.2034 7.4548 37.3277 0 0 0
443 2 13.8227 7.0886 39.3592 0 0 0
440 2 13.054 7.9105 38.3085 0 0 0
437 2 11.5468 7.9778 38.6446 0 0 0
424 3 14.8844 12.4395 39.105 0 0 0
423 3 13.725 12.9285 40.35 0 0 0
422 3 13.4425 11.4554 39.4028 0 0 0
418 3 13.4684 14.311 38.2707 0 0 0
417 3 13.2034 12.8448 37.3277 0 0 0
390 2 13.8227 12.4786 39.3592 0 0 0
387 2 13.054 13.3005 38.3085 0 0 0
384 2 11.5468 13.3678 38.6446 0 0 0
318 3 22.507 1.6595 39.105 0 0 0
317 3 21.3476 2.1485 40.35 0 0 0
316 3 21.0651 0.6754 39.4028 0 0 0
312 3 21.091 3.531 38.2707 0 0 0
311 3 20.826 2.0648 37.3277 0 0 0
307 3 19.051 2.9774 39.6582 0 0 0
306 3 18.7425 1.5815 38.6369 0 0 0
299 3 18.8317 4.4905 37.6523 0 0 0
298 3 17.3653 3.6193 38.0757 0 0 0
296 3 17.8694 1.9126 36.2843 0 0 0
284 2 21.4454 1.6986 39.3592 0 0 0
281 2 20.6766 2.5205 38.3085 0 0 0
278 2 19.1694 2.5878 38.6446 0 0 0
274 2 18.3759 3.4973 37.679 0 0 0
273 2 18.2846 2.9227 36.2469 0 0 0
265 3 22.507 7.0495 39.105 0 0 0
264 3 21.3476 7.5385 40.35 0 0 0
263 3 21.0651 6.0654 39.4028 0 0 0
259 3 21.091 8.921 38.2707 0 0 0
258 3 20.826 7.4548 37.3277 0 0 0
254 3 19.051 8.3674 39.6582 0 0 0
253 3 18.7425 6.9715 38.6369 0 0 0
246 3 18.8317 9.8805 37.6523 0 0 0
245 3 17.3653 9.0093 38.0757 0 0 0
243 3 17.8694 7.3026 36.2843 0 0 0
231 2 21.4454 7.0886 39.3592 0 0 0
228 2 20.6766 7.9105 38.3085 0 0 0
225 2 19.1694 7.9778 38.6446 0 0 0
221 2 18.3759 8.8873 37.679 0 0 0
220 2 18.2846 8.3127 36.2469 0 0 0
212 3 22.507 12.4395 39.105 0 0 0
211 3 21.3476 12.9285 40.35 0 0 0
210 3 21.0651 11.4554 39.4028 0 0 0
206 3 21.091 14.311 38.2707 0 0 0
205 3 20.826 12.8448 37.3277 0 0 0
201 3 19.051 13.7574 39.6582 0 0 0
200 3 18.7425 12.3615 38.6369 0 0 0
193 3 18.8317 15.2705 37.6523 0 0 0
192 3 17.3653 14.3993 38.0757 0 0 0
190 3 17.8694 12.6926 36.2843 0 0 0
178 2 21.4454 12.4786 39.3592 0 0 0
175 2 20.6766 13.3005 38.3085 0 0 0
172 2 19.1694 13.3678 38.6446 0 0 0
168 2 18.3759 14.2773 37.679 0 0 0
924 5 13.4903 -0.23082 5.82964 0 0 0
961 4 14.8084 16.6446 8.23521 0 0 0
1058 5 17.5901 27.821 8.23581 0 0 0
972 5 13.4903 21.3292 5.82966 0 0 0
973 4 14.8084 22.0346 8.23517 0 0 0
1057 4 22.4307 27.4256 8.24057 0 0 0
984 5 13.4903 26.7192 5.82965 0 0 0
985 4 14.8084 27.4246 8.23523 0 0 0
1056 5 21.1128 26.7183 5.82787 0 0 0
993 4 15.6668 -0.67743 4.05178 0 0 0
996 5 21.1128 -0.23168 5.82784 0 0 0
1030 5 16.7272 18.1935 4.05414 0 0 0
1031 4 18.9057 17.7517 5.83021 0 0 0
1033 4 22.4307 16.6456 8.24057 0 0 0
1034 5 17.5901 17.041 8.23583 0 0 0
1055 4 18.9058 28.5317 5.83023 0 0 0
1054 5 16.7271 28.9735 4.05415 0 0 0
1041 4 15.6668 20.8826 4.05178 0 0 0
1042 5 16.7272 23.5835 4.05414 0 0 0
1043 4 18.9058 23.1417 5.83021 0 0 0
1044 5 21.1128 21.3283 5.82787 0 0 0
1045 4 22.4307 22.0356 8.24053 0 0 0
1046 5 17.5901 22.431 8.23586 0 0 0
1053 4 15.6668 26.2726 4.05178 0 0 0
964 5 13.7764 17.0452 10.8208 0 0 0
1060 5 21.3995 27.8242 10.8151 0 0 0
1059 4 18.6219 27.4209 10.8194 0 0 0
976 5 13.7764 22.4353 10.8209 0 0 0
988 5 13.7764 27.8252 10.8208 0 0 0
1035 4 18.6219 16.6409 10.8194 0 0 0
1036 5 21.3995 17.0442 10.8151 0 0 0
1047 4 18.6219 22.0309 10.8193 0 0 0
1048 5 21.3995 22.4342 10.8151 0 0 0
1064 5 20.5367 28.9739 15.0036 0 0 0
1063 4 19.4795 26.2723 15.006 0 0 0
1062 5 17.2991 26.7194 13.2266 0 0 0
1061 4 22.7207 28.5316 13.2287 0 0 0
1052 5 20.5367 23.5839 15.0036 0 0 0
1051 4 19.4795 20.8823 15.006 0 0 0
1050 5 17.2991 21.3295 13.2266 0 0 0
1049 4 22.7207 23.1415 13.2286 0 0 0
1040 5 20.5367 18.1939 15.0036 0 0 0
1037 4 22.7207 17.7515 13.2287 0 0 0
1003 4 19.4795 -0.67771 15.006 0 0 0
1002 5 17.2991 -0.23056 13.2266 0 0 0
992 5 12.9143 28.9737 15.0035 0 0 0
991 4 11.8562 26.2722 15.0059 0 0 0
989 4 15.0972 28.531 13.2264 0 0 0
980 5 12.9143 23.5837 15.0035 0 0 0
979 4 11.8562 20.8822 15.006 0 0 0
977 4 15.0972 23.141 13.2264 0 0 0
968 5 12.9143 18.1937 15.0035 0 0 0
965 4 15.0972 17.7509 13.2264 0 0 0
931 4 11.8562 -0.67776 15.0059 0 0 0
107 1 19.0565 21.56 20.7565 0 0 0
179 2 18.3122 16.3764 21.8099 0 0 0
161 1 17.1629 16.7636 21.7282 0 0 0
160 1 19.0565 16.17 20.7565 0 0 0
126 2 18.3122 21.7664 21.8099 0 0 0
108 1 17.1629 22.1536 21.7282 0 0 0
368 3 12.3653 21.4469 23.1004 0 0 0
347 3 12.3436 21.4266 25.6351 0 0 0
199 3 18.2871 17.4114 24.3719 0 0 0
171 2 18.2395 16.32 24.3541 0 0 0
156 3 19.9879 21.4469 23.1004 0 0 0
155 3 18.8583 20.0988 23.0306 0 0 0
146 3 18.2871 22.8014 24.3719 0 0 0
145 3 17.1836 21.4254 24.3445 0 0 0
136 3 18.8627 20.0506 25.6054 0 0 0
135 3 19.9662 21.4266 25.6351 0 0 0
124 2 18.9257 21.189 23.0721 0 0 0
118 2 18.2395 21.71 24.3541 0 0 0
113 2 18.9107 21.1429 25.6232 0 0 0
109 2 18.8997 21.1137 28.1713 0 0 0
345 3 12.3378 21.375 30.6946 0 0 0
340 3 12.3319 21.4001 28.1778 0 0 0
184 3 18.2641 17.3704 26.9127 0 0 0
182 3 18.2511 17.3524 29.4452 0 0 0
164 2 18.223 16.2779 26.9003 0 0 0
163 2 18.2133 16.2605 29.4453 0 0 0
134 3 18.8349 20.0228 30.7482 0 0 0
133 3 19.9604 21.375 30.6946 0 0 0
132 3 17.1685 21.3781 26.8924 0 0 0
131 3 18.2641 22.7604 26.9127 0 0 0
130 3 17.1614 21.3549 29.4387 0 0 0
129 3 18.2511 22.7424 29.4452 0 0 0
128 3 19.9545 21.4001 28.1778 0 0 0
127 3 18.8533 20.0217 28.1642 0 0 0
112 2 18.8997 21.1137 30.7214 0 0 0
111 2 18.223 21.6679 26.9003 0 0 0
110 2 18.2133 21.6505 29.4453 0 0 0
204 3 16.1037 16.4102 31.6384 0 0 0
196 3 18.3173 17.4 31.9711 0 0 0
170 2 18.2799 16.3087 32.0093 0 0 0
154 3 15.3617 20.0923 33.1113 0 0 0
151 3 16.1037 21.8002 31.6384 0 0 0
144 3 18.9009 21.4058 32.8579 0 0 0
143 3 18.3173 22.79 31.9711 0 0 0
123 2 16.4269 20.3003 33.0467 0 0 0
121 2 16.8443 21.2486 32.2124 0 0 0
117 2 18.2799 21.6987 32.0093 0 0 0
350 3 11.6587 19.0261 35.8064 0 0 0
150 3 16.8891 18.4112 33.9401 0 0 0
149 3 18.3087 19.3338 33.4946 0 0 0
142 3 17.8058 20.9927 35.3192 0 0 0
141 3 16.3921 20.0447 35.7783 0 0 0
138 3 19.2813 19.0261 35.8064 0 0 0
120 2 17.3048 19.4221 33.9161 0 0 0
116 2 17.3954 19.9802 35.3503 0 0 0
114 2 18.2846 19.0927 36.2469 0 0 0
371 3 14.8844 17.8295 39.105 0 0 0
370 3 13.725 18.3185 40.35 0 0 0
369 3 13.4425 16.8454 39.4028 0 0 0
365 3 13.4684 19.701 38.2707 0 0 0
364 3 13.2034 18.2348 37.3277 0 0 0
337 2 13.8227 17.8686 39.3592 0 0 0
334 2 13.054 18.6905 38.3085 0 0 0
331 2 11.5468 18.7578 38.6446 0 0 0
159 3 22.507 17.8295 39.105 0 0 0
158 3 21.3476 18.3185 40.35 0 0 0
157 3 21.0651 16.8454 39.4028 0 0 0
153 3 21.091 19.701 38.2707 0 0 0
152 3 20.826 18.2348 37.3277 0 0 0
148 3 19.051 19.1474 39.6582 0 0 0
147 3 18.7425 17.7515 38.6369 0 0 0
140 3 18.8317 20.6605 37.6523 0 0 0
139 3 17.3653 19.7893 38.0757 0 0 0
137 3 17.8694 18.0826 36.2843 0 0 0
125 2 21.4454 17.8686 39.3592 0 0 0
122 2 20.6766 18.6905 38.3085 0 0 0
119 2 19.1694 18.7578 38.6446 0 0 0
115 2 18.3759 19.6673 37.679 0 0 0
1066 5 24.3493 2.02356 4.05416 0 0 0
1067 4 26.5286 1.58105 5.83159 0 0 0
1069 4 30.0547 0.47651 8.24453 0 0 0
1070 5 25.2112 0.87189 8.22936 0 0 0
1173 4 30.9125 15.4924 4.05095 0 0 0
1166 5 32.832 11.6522 8.22659 0 0 0
1077 4 23.289 4.71262 4.05153 0 0 0
1078 5 24.3493 7.41354 4.05415 0 0 0
1079 4 26.5286 6.97105 5.83159 0 0 0
1080 5 28.7333 5.15819 5.82583 0 0 0
1081 4 30.0547 5.86652 8.24456 0 0 0
1082 5 25.2112 6.26189 8.2293 0 0 0
1163 4 34.1527 12.3605 5.83222 0 0 0
1162 5 31.9709 12.8037 4.05371 0 0 0
1089 4 23.289 10.1026 4.05153 0 0 0
1090 5 24.3493 12.8035 4.05416 0 0 0
1091 4 26.5286 12.3611 5.83158 0 0 0
1092 5 28.7333 10.5482 5.82584 0 0 0
1093 4 30.0547 11.2565 8.24453 0 0 0
1094 5 25.2112 11.6519 8.22936 0 0 0
1161 4 30.9125 10.1024 4.05093 0 0 0
1154 5 32.832 6.26223 8.22654 0 0 0
1101 4 23.289 15.4927 4.05154 0 0 0
1104 5 28.7334 15.9382 5.82588 0 0 0
1138 5 31.9709 2.02376 4.0537 0 0 0
1139 4 34.1527 1.58052 5.83223 0 0 0
1142 5 32.832 0.87222 8.2266 0 0 0
1151 4 34.1527 6.97052 5.83223 0 0 0
1149 4 30.9125 4.71238 4.05093 0 0 0
1150 5 31.9709 7.41375 4.0537 0 0 0
1071 4 26.2457 0.46981 10.826 0 0 0
1072 5 29.0214 0.87338 10.8112 0 0 0
1167 4 33.8683 11.2493 10.8289 0 0 0
1083 4 26.2457 5.85979 10.8261 0 0 0
1084 5 29.0214 6.26338 10.8112 0 0 0
1095 4 26.2457 11.2498 10.826 0 0 0
1096 5 29.0214 11.6534 10.8112 0 0 0
1155 4 33.8683 5.85929 10.829 0 0 0
1143 4 33.8683 0.4693 10.8289 0 0 0
1182 5 32.5456 15.9398 13.2245 0 0 0
1170 5 32.5456 10.5498 13.2245 0 0 0
1158 5 32.5456 5.15974 13.2245 0 0 0
1111 4 27.1021 15.4923 15.0062 0 0 0
1110 5 24.9218 15.9399 13.2248 0 0 0
1100 5 28.1596 12.804 15.0039 0 0 0
1099 4 27.1021 10.1023 15.0062 0 0 0
1098 5 24.9218 10.5499 13.2248 0 0 0
1097 4 30.3434 12.3622 13.2308 0 0 0
1088 5 28.1596 7.41394 15.0039 0 0 0
1087 4 27.1021 4.71234 15.0062 0 0 0
1086 5 24.9218 5.15988 13.2247 0 0 0
1085 4 30.3434 6.97227 13.2308 0 0 0
1076 5 28.1596 2.02392 15.0039 0 0 0
1073 4 30.3434 1.58228 13.2308 0 0 0
1 1 26.6791 10.78 20.7565 0 0 0
656 2 33.5574 5.5964 21.8099 0 0 0
638 1 32.4081 5.9836 21.7282 0 0 0
637 1 34.3017 5.39 20.7565 0 0 0
603 2 33.5574 10.9864 21.8099 0 0 0
585 1 32.4081 11.3736 21.7282 0 0 0
584 1 34.3017 10.78 20.7565 0 0 0
73 2 25.9348 5.5964 21.8099 0 0 0
55 1 24.7855 5.9836 21.7282 0 0 0
54 1 26.6791 5.39 20.7565 0 0 0
20 2 25.9348 10.9864 21.8099 0 0 0
2 1 24.7855 11.3736 21.7282 0 0 0
792 3 27.6105 16.0569 23.1004 0 0 0
791 3 26.4809 14.7088 23.0306 0 0 0
781 3 24.8062 16.0354 24.3445 0 0 0
772 3 26.4853 14.6606 25.6054 0 0 0
771 3 27.5888 16.0366 25.6351 0 0 0
760 2 26.5483 15.799 23.0721 0 0 0
749 2 26.5333 15.7529 25.6232 0 0 0
685 3 34.1035 3.9288 23.0306 0 0 0
676 3 33.5323 6.6314 24.3719 0 0 0
675 3 32.4288 5.2554 24.3445 0 0 0
666 3 34.1079 3.8806 25.6054 0 0 0
654 2 34.171 5.019 23.0721 0 0 0
648 2 33.4847 5.54 24.3541 0 0 0
643 2 34.1559 4.9729 25.6232 0 0 0
632 3 34.1035 9.3188 23.0306 0 0 0
623 3 33.5323 12.0214 24.3719 0 0 0
622 3 32.4288 10.6454 24.3445 0 0 0
613 3 34.1079 9.2706 25.6054 0 0 0
601 2 34.171 10.409 23.0721 0 0 0
595 2 33.4847 10.93 24.3541 0 0 0
590 2 34.1559 10.3629 25.6232 0 0 0
579 3 34.1035 14.7088 23.0306 0 0 0
569 3 32.4288 16.0354 24.3445 0 0 0
560 3 34.1079 14.6606 25.6054 0 0 0
548 2 34.171 15.799 23.0721 0 0 0
537 2 34.1559 15.7529 25.6232 0 0 0
103 3 27.6105 5.2769 23.1004 0 0 0
102 3 26.4809 3.9288 23.0306 0 0 0
93 3 25.9097 6.6314 24.3719 0 0 0
92 3 24.8062 5.2554 24.3445 0 0 0
83 3 26.4853 3.8806 25.6054 0 0 0
82 3 27.5888 5.2566 25.6351 0 0 0
71 2 26.5483 5.019 23.0721 0 0 0
65 2 25.8621 5.54 24.3541 0 0 0
60 2 26.5333 4.9729 25.6232 0 0 0
50 3 27.6105 10.6669 23.1004 0 0 0
49 3 26.4809 9.3188 23.0306 0 0 0
40 3 25.9097 12.0214 24.3719 0 0 0
39 3 24.8062 10.6454 24.3445 0 0 0
30 3 26.4853 9.2706 25.6054 0 0 0
29 3 27.5888 10.6466 25.6351 0 0 0
18 2 26.5483 10.409 23.0721 0 0 0
12 2 25.8621 10.93 24.3541 0 0 0
7 2 26.5333 10.3629 25.6232 0 0 0
3 2 26.5223 10.3337 28.1713 0 0 0
770 3 26.4575 14.6328 30.7482 0 0 0
769 3 27.5831 15.985 30.6946 0 0 0
768 3 24.7911 15.9881 26.8924 0 0 0
766 3 24.784 15.9649 29.4387 0 0 0
764 3 27.5771 16.0101 28.1778 0 0 0
763 3 26.4759 14.6317 28.1642 0 0 0
748 2 26.5223 15.7237 30.7214 0 0 0
745 2 26.5223 15.7237 28.1713 0 0 0
664 3 34.0801 3.8528 30.7482 0 0 0
662 3 32.4137 5.2081 26.8924 0 0 0
661 3 33.5093 6.5904 26.9127 0 0 0
660 3 32.4066 5.1849 29.4387 0 0 0
659 3 33.4963 6.5724 29.4452 0 0 0
657 3 34.0985 3.8517 28.1642 0 0 0
642 2 34.1449 4.9437 30.7214 0 0 0
641 2 33.4683 5.4979 26.9003 0 0 0
640 2 33.4586 5.4805 29.4453 0 0 0
639 2 34.1449 4.9437 28.1713 0 0 0
611 3 34.0801 9.2428 30.7482 0 0 0
609 3 32.4137 10.5981 26.8924 0 0 0
608 3 33.5093 11.9804 26.9127 0 0 0
607 3 32.4066 10.5749 29.4387 0 0 0
606 3 33.4963 11.9624 29.4452 0 0 0
604 3 34.0985 9.2417 28.1642 0 0 0
589 2 34.1449 10.3337 30.7214 0 0 0
588 2 33.4683 10.8879 26.9003 0 0 0
587 2 33.4586 10.8705 29.4453 0 0 0
586 2 34.1449 10.3337 28.1713 0 0 0
558 3 34.0801 14.6328 30.7482 0 0 0
556 3 32.4137 15.9881 26.8924 0 0 0
554 3 32.4066 15.9649 29.4387 0 0 0
551 3 34.0985 14.6317 28.1642 0 0 0
536 2 34.1449 15.7237 30.7214 0 0 0
533 2 34.1449 15.7237 28.1713 0 0 0
81 3 26.4575 3.8528 30.7482 0 0 0
80 3 27.5831 5.205 30.6946 0 0 0
79 3 24.7911 5.2081 26.8924 0 0 0
78 3 25.8867 6.5904 26.9127 0 0 0
77 3 24.784 5.1849 29.4387 0 0 0
76 3 25.8737 6.5724 29.4452 0 0 0
75 3 27.5771 5.2301 28.1778 0 0 0
74 3 26.4759 3.8517 28.1642 0 0 0
59 2 26.5223 4.9437 30.7214 0 0 0
58 2 25.8457 5.4979 26.9003 0 0 0
57 2 25.8359 5.4805 29.4453 0 0 0
56 2 26.5223 4.9437 28.1713 0 0 0
28 3 26.4575 9.2428 30.7482 0 0 0
27 3 27.5831 10.595 30.6946 0 0 0
26 3 24.7911 10.5981 26.8924 0 0 0
25 3 25.8867 11.9804 26.9127 0 0 0
24 3 24.784 10.5749 29.4387 0 0 0
23 3 25.8737 11.9624 29.4452 0 0 0
22 3 27.5771 10.6201 28.1778 0 0 0
21 3 26.4759 9.2417 28.1642 0 0 0
6 2 26.5223 10.3337 30.7214 0 0 0
5 2 25.8457 10.8879 26.9003 0 0 0
4 2 25.8359 10.8705 29.4453 0 0 0
790 3 22.9844 14.7023 33.1113 0 0 0
780 3 26.5235 16.0158 32.8579 0 0 0
759 2 24.0495 14.9103 33.0467 0 0 0
757 2 24.4669 15.8586 32.2124 0 0 0
684 3 30.607 3.9223 33.1113 0 0 0
681 3 31.3489 5.6302 31.6384 0 0 0
674 3 34.1461 5.2358 32.8579 0 0 0
673 3 33.5625 6.62 31.9711 0 0 0
653 2 31.6721 4.1303 33.0467 0 0 0
651 2 32.0895 5.0786 32.2124 0 0 0
647 2 33.5251 5.5287 32.0093 0 0 0
631 3 30.607 9.3123 33.1113 0 0 0
628 3 31.3489 11.0202 31.6384 0 0 0
621 3 34.1461 10.6258 32.8579 0 0 0
620 3 33.5625 12.01 31.9711 0 0 0
600 2 31.6721 9.5203 33.0467 0 0 0
598 2 32.0895 10.4686 32.2124 0 0 0
594 2 33.5251 10.9187 32.0093 0 0 0
578 3 30.607 14.7023 33.1113 0 0 0
568 3 34.1461 16.0158 32.8579 0 0 0
547 2 31.6721 14.9103 33.0467 0 0 0
545 2 32.0895 15.8586 32.2124 0 0 0
101 3 22.9844 3.9223 33.1113 0 0 0
98 3 23.7263 5.6302 31.6384 0 0 0
91 3 26.5235 5.2358 32.8579 0 0 0
90 3 25.9399 6.62 31.9711 0 0 0
70 2 24.0495 4.1303 33.0467 0 0 0
68 2 24.4669 5.0786 32.2124 0 0 0
64 2 25.9025 5.5287 32.0093 0 0 0
48 3 22.9844 9.3123 33.1113 0 0 0
45 3 23.7263 11.0202 31.6384 0 0 0