ITEM: TIMESTEP
0
ITEM: NUMBER OF ATOMS
1280
ITEM: BOX BOUNDS pp pp ss
0.0000000000000000e+00 4.5735666000000002e+01
0.0000000000000000e+00 3.2339998999999999e+01
4.0565321093463549e+00 4.0369761621588935e+01
ITEM: ATOMS id type xu yu zu vx vy vz
850 5 1.49659 2.02357 4.13095 0 0 -0
851 4 3.73156 1.68109 5.90527 0 0 -0
853 4 7.20415 0.389587 8.29272 -0 0 -0
854 5 2.33184 0.873704 8.23977 -0 -0 -0
957 4 8.11398 15.4926 4.22008 0 0 0
950 5 9.97539 11.6323 8.26182 -0 -0 0
861 4 0.469167 4.71363 4.17897 -0 0 -0
862 5 1.50264 7.41312 4.13043 0 0 -0
863 4 3.73551 7.06906 5.91283 -0 0 0
864 5 5.82053 5.09663 5.8774 -0 0 -0
865 4 7.21534 5.77941 8.30123 0 0 0
866 5 2.3364 6.25932 8.24682 0 -0 0
947 4 11.3662 12.4639 5.93764 0 0 0
946 5 9.13521 12.8027 4.12376 0 0 -0
873 4 0.475202 10.1024 4.18367 0 0 -0
874 5 1.50533 12.8029 4.12715 0 0 -0
875 4 3.73765 12.4565 5.91463 -0 -0 -0
876 5 5.82182 10.485 5.87627 0 -0 -0
877 4 7.21858 11.1563 8.30675 -0 -0 -0
878 5 2.33576 11.6534 8.24723 -0 0 0
945 4 8.11452 10.1038 4.22255 0 0 -0
938 5 9.97666 6.23516 8.25765 -0 -0 0
885 4 0.476044 15.4926 4.18288 0 -0 -0
888 5 5.82223 15.8776 5.8743 -0 -0 0
922 5 9.12438 2.02163 4.1271 0 0 -0
923 4 11.3601 1.69662 5.92316 -0 0 0
926 5 9.9642 0.853194 8.24229 0 0 0
935 4 11.3657 7.08446 5.93559 0 -0 -0
933 4 8.10743 4.71431 4.21449 -0 -0 0
934 5 9.13118 7.41144 4.13016 0 0 0
855 4 3.38642 0.47467 10.846 0 -0 0
856 5 6.14306 0.959418 10.8139 0 0 0
951 4 11.0558 11.2973 10.945 0 0 0
867 4 3.39235 5.88688 10.8683 -0 0 0
868 5 6.15088 6.35414 10.8147 -0 -0 0
879 4 3.39539 11.2647 10.8708 -0 -0 0
880 5 6.14459 11.7761 10.8024 0 0 0
939 4 11.0426 5.93065 10.9364 -0 -0 -0
927 4 11.0229 0.509236 10.8838 0 -0 0
966 5 9.55151 15.754 13.1567 -0 0 0
954 5 9.53253 10.3236 13.1467 0 0 0
942 5 9.5356 4.93476 13.15 -0 -0 -0
895 4 4.24283 15.4952 14.9487 -0 0 -0
894 5 1.97357 15.8175 13.1722 0 -0 -0
884 5 5.17225 12.8046 14.7467 0 0 -0
883 4 4.24853 10.1046 14.9359 -0 0 -0
882 5 1.96085 10.3986 13.167 -0 0 -0
881 4 7.59157 12.4465 13.2421 0 0 -0
872 5 5.18366 7.40487 14.7587 0 -0 -0
871 4 4.25132 4.7116 14.9143 0 -0 0
870 5 1.95897 5.01345 13.1671 -0 0 -0
869 4 7.60435 7.09538 13.2321 0 0 0
860 5 5.21754 2.01085 14.8197 0 -0 -0
857 4 7.585 1.7348 13.2048 -0 0 0
425 1 11.2016 10.6589 20.6352 -0 0 -0
815 2 10.7901 5.7929 21.7697 0 -0 -0
797 1 9.45971 5.69992 21.7107 0 -0 0
796 1 11.2019 5.15942 20.6759 -0 0 0
444 2 10.7812 11.1857 21.7782 0 -0 -0
426 1 9.44634 11.1977 21.7199 -0 -0 -0
372 1 11.2154 16.1246 20.6131 -0 -0 -0
844 3 11.168 3.98396 22.9448 0 0 0
835 3 10.6743 6.63751 24.3777 -0 0 -0
834 3 9.57426 5.25704 24.3259 -0 -0 -0
825 3 11.2331 3.88311 25.596 -0 -0 -0
813 2 11.3086 5.06061 23.0404 -0 -0 0
807 2 10.6242 5.54915 24.3452 -0 -0 -0
802 2 11.2889 4.97146 25.6179 -0 0 -0
473 3 11.17 9.36355 22.946 -0 -0 -0
464 3 10.675 12.0218 24.3747 0 0 0
463 3 9.57359 10.642 24.3271 -0 -0 0
454 3 11.2334 9.27126 25.5981 -0 0 0
442 2 11.3049 10.4411 23.04 -0 -0 0
436 2 10.6238 10.9334 24.3453 0 -0 0
431 2 11.2888 10.3596 25.6192 -0 0 -0
420 3 11.1765 14.7433 22.9554 0 0 0
410 3 9.57317 16.0293 24.3284 -0 -0 0
401 3 11.2334 14.6619 25.6 -0 0 0
389 2 11.304 15.8223 23.0425 0 -0 0
378 2 11.2889 15.7503 25.6201 0 0 -0
374 2 11.2817 15.7213 28.1718 0 -0 0
823 3 11.1928 3.86177 30.7745 0 -0 -0
821 3 9.55137 5.20343 26.8898 0 -0 -0
820 3 10.652 6.58573 26.9091 0 0 -0
819 3 9.55019 5.17636 29.4353 -0 0 -0
818 3 10.6411 6.56894 29.4391 0 -0 -0
816 3 11.229 3.85313 28.1634 -0 -0 0
801 2 11.2729 4.94802 30.7328 0 0 0
800 2 10.6011 5.49696 26.9003 -0 -0 0
799 2 10.597 5.47989 29.4504 -0 0 -0
798 2 11.282 4.94181 28.171 -0 -0 0
452 3 11.1922 9.25002 30.7742 -0 -0 0
450 3 9.55131 10.5917 26.89 -0 0 -0
449 3 10.6516 11.9749 26.9093 -0 -0 0
448 3 9.54996 10.5645 29.4352 -0 0 0
447 3 10.6409 11.9575 29.4394 -0 -0 0
445 3 11.2288 9.24177 28.1631 -0 -0 0
430 2 11.2722 10.3363 30.7332 0 0 0
429 2 10.6007 10.8861 26.901 0 -0 0
428 2 10.5966 10.8685 29.4509 -0 -0 -0
427 2 11.2817 10.3305 28.1717 -0 0 0
399 3 11.1912 14.6403 30.7741 -0 -0 -0
397 3 9.55161 15.9811 26.8903 0 0 0
395 3 9.55024 15.9537 29.4351 -0 0 -0
392 3 11.2282 14.6326 28.163 0 0 0
377 2 11.2718 15.7266 30.7334 0 -0 -0
843 3 7.69458 3.91661 33.2004 -0 0 0
840 3 8.50801 5.65506 31.5563 0 -0 -0
833 3 11.2902 5.2787 32.8693 -0 -0 -0
832 3 10.7791 6.6599 31.9316 0 -0 0
812 2 8.7445 3.92376 32.9077 -0 0 0
810 2 9.18143 5.30688 32.3395 0 -0 0
806 2 10.672 5.57906 32.0234 0 -0 0
472 3 7.69337 9.30449 33.198 -0 -0 0
469 3 8.50943 11.0407 31.5536 0 0 0
462 3 11.2908 10.668 32.8692 -0 0 0
461 3 10.7799 12.0489 31.9311 -0 0 -0
441 2 8.74455 9.31564 32.9099 -0 -0 0
439 2 9.18073 10.6984 32.3411 -0 0 -0
435 2 10.6717 10.9682 32.0238 0 -0 0
419 3 7.69264 14.6915 33.1953 -0 -0 -0
409 3 11.2905 16.0573 32.869 -0 0 0
388 2 8.74509 14.7091 32.9123 0 -0 0
386 2 9.18015 16.0916 32.3421 0 -0 -0
839 3 9.28114 2.17819 33.9931 -0 -0 -0
838 3 10.6643 3.12327 33.4855 -0 -0 -0
831 3 10.1765 4.80998 35.2818 0 0 0
830 3 8.75789 3.87292 35.7696 0 -0 -0
809 2 9.6624 3.19583 33.9086 0 0 -0
805 2 9.75683 3.80562 35.3387 0 0 0
468 3 9.27911 7.57492 34.0033 0 0 0
467 3 10.6643 8.52282 33.4952 0 0 -0
460 3 10.1762 10.2024 35.2856 -0 0 -0
459 3 8.75618 9.26471 35.7735 -0 -0 -0
438 2 9.6607 8.5921 33.9148 0 -0 0
434 2 9.75554 9.19854 35.3434 0 -0 0
415 3 9.27866 12.9659 34.0026 -0 0 0
414 3 10.6643 13.9126 33.495 0 0 -0
407 3 10.1766 15.5925 35.2862 -0 -0 0
406 3 8.75642 14.6542 35.7738 -0 0 -0
385 2 9.66099 13.9829 33.9152 0 0 -0
381 2 9.75588 14.5886 35.3439 -0 -0 -0
379 2 10.6505 13.7121 36.2528 -0 0 -0
837 3 11.4317 2.98782 39.6657 -0 -0 -0
836 3 11.1254 1.58888 38.6432 -0 0 0
829 3 11.2102 4.48933 37.6589 0 0 0
828 3 9.74339 3.61522 38.0911 0 0 -0
826 3 10.2446 1.92199 36.2976 -0 0 0
804 2 10.7514 3.50119 37.6922 -0 0 -0
803 2 10.6507 2.93245 36.2514 -0 -0 0
466 3 11.4323 8.37754 39.6659 -0 -0 -0
465 3 11.1242 6.97845 38.6443 -0 -0 0
458 3 11.2108 9.87835 37.659 0 0 0
457 3 9.74361 9.00467 38.0916 0 0 -0
455 3 10.2433 7.31198 36.2983 -0 0 0
433 2 10.7517 8.89036 37.693 -0 0 -0
432 2 10.6502 8.32214 36.2525 -0 0 -0
413 3 11.4321 13.7673 39.6662 -0 -0 -0
412 3 11.1244 12.3685 38.6439 -0 -0 0
405 3 11.2109 15.2684 37.6591 -0 0 -0
404 3 9.74356 14.3944 38.0916 -0 -0 0
402 3 10.2434 12.7019 36.2983 0 -0 -0
380 2 10.7517 14.2804 37.6931 -0 -0 0
849 4 0.465472 -0.676497 4.17623 0 0 0
852 5 5.81573 -0.29135 5.87261 -0 -0 -0
886 5 1.50386 18.1932 4.12733 -0 0 -0
887 4 3.73631 17.846 5.91255 -0 0 -0
889 4 7.21787 16.5302 8.30824 -0 -0 0
890 5 2.33295 17.0501 8.24604 -0 -0 -0
986 5 9.95725 27.8176 8.23895 0 0 -0
983 4 11.3574 28.642 5.91726 0 0 0
897 4 0.470071 20.8826 4.17677 -0 -0 0
898 5 1.49857 23.5835 4.12919 0 -0 -0
899 4 3.73312 23.2375 5.90645 -0 -0 0
900 5 5.82157 21.2714 5.87231 0 0 0
901 4 7.21317 21.9219 8.30113 0 -0 -0
902 5 2.33136 22.4441 8.24248 0 0 -0
982 5 9.12257 28.9719 4.12334 -0 -0 -0
981 4 8.10153 26.2717 4.20487 0 -0 -0
909 4 0.465667 26.2726 4.17435 -0 -0 0
910 5 1.49437 28.9735 4.12922 0 0 -0
911 4 3.73031 28.6299 5.90116 0 -0 -0
912 5 5.81597 26.6605 5.86907 0 -0 -0
913 4 7.20253 27.326 8.29093 -0 0 0
914 5 2.32901 27.8313 8.23654 0 -0 0
974 5 9.96429 22.4349 8.25573 0 -0 -0
971 4 11.3595 23.2439 5.92583 -0 -0 0
921 4 8.10205 -0.67703 4.20873 0 -0 0
958 5 9.13311 18.1935 4.12248 -0 0 0
959 4 11.3625 17.8475 5.93375 -0 0 -0
962 5 9.96927 17.0393 8.26347 -0 -0 -0
970 5 9.12737 23.5827 4.12432 0 0 0
969 4 8.10629 20.8817 4.20778 0 0 -0
891 4 3.39929 16.624 10.8569 -0 0 -0
987 4 11.0285 27.3952 10.8551 0 -0 0
892 5 6.13752 17.1919 10.792 -0 -0 0
903 4 3.39514 21.995 10.8397 0 -0 0
904 5 6.13098 22.5749 10.79 -0 -0 0
915 4 3.38607 27.3939 10.831 -0 0 0
975 4 11.056 21.9869 10.8844 0 -0 -0
916 5 6.13074 27.9353 10.7988 0 -0 -0
963 4 11.0642 16.637 10.9227 -0 0 0
990 5 9.57721 26.6351 13.1708 -0 -0 -0
978 5 9.5815 21.2113 13.1745 0 -0 0
930 5 9.54949 -0.383482 13.1556 -0 -0 -0
920 5 5.2299 28.9754 14.8585 -0 -0 0
919 4 4.2412 26.2788 14.9126 0 0 0
918 5 1.97959 26.6447 13.1767 -0 0 0
917 4 7.54923 28.6482 13.1991 -0 0 -0
908 5 5.19972 23.5968 14.8181 0 -0 -0
907 4 4.2439 20.8882 14.9435 -0 -0 0
906 5 1.98588 21.2457 13.1804 -0 -0 -0
905 4 7.54299 23.1945 13.2249 0 -0 0
896 5 5.17543 18.2023 14.7684 0 0 -0
893 4 7.56569 17.8042 13.2411 -0 -0 -0
859 4 4.24395 -0.676658 14.8952 0 -0 0
858 5 1.96494 -0.339777 13.1691 0 0 0
319 1 11.2842 21.6763 20.5891 -0 -0 -0
391 2 10.773 16.5625 21.7827 0 -0 -0
373 1 9.44223 16.6683 21.7259 -0 0 0
320 1 9.44869 22.2262 21.7388 -0 0 0
338 2 10.725 21.8392 21.7744 0 0 0
411 3 10.6751 17.4091 24.3717 -0 0 -0
383 2 10.6233 16.3207 24.3455 -0 0 -0
367 3 11.2057 20.1026 22.9974 -0 0 0
358 3 10.6752 22.7932 24.3631 -0 0 0
357 3 9.57076 21.4147 24.3308 0 -0 -0
348 3 11.2333 20.0516 25.6034 0 0 -0
336 2 11.3046 21.1867 23.0531 0 0 -0
330 2 10.6214 21.7047 24.3458 0 -0 -0
325 2 11.2884 21.1401 25.6215 -0 -0 -0
321 2 11.2816 21.1106 28.1725 0 -0 0
396 3 10.6507 17.366 26.9096 0 0 -0
394 3 10.6402 17.3481 29.4398 -0 0 -0
376 2 10.6006 16.2771 26.9014 0 -0 -0
375 2 10.5965 16.259 29.451 -0 -0 0
346 3 11.189 20.034 30.7773 0 -0 0
344 3 9.55154 21.3692 26.8913 -0 0 -0
343 3 10.6494 22.7554 26.9106 0 -0 -0
342 3 9.55008 21.3422 29.4359 0 -0 0
341 3 10.6388 22.738 29.4399 -0 -0 0
339 3 11.2276 20.022 28.1638 0 0 0
324 2 11.2697 21.1203 30.7362 0 -0 -0
323 2 10.6001 21.6666 26.9023 -0 -0 -0
322 2 10.5959 21.6489 29.4518 -0 0 -0
416 3 8.50972 16.4271 31.5509 -0 0 0
408 3 10.7813 17.4394 31.9315 -0 -0 -0
382 2 10.6716 16.3589 32.024 0 0 -0
366 3 7.69459 20.0796 33.1948 -0 -0 0
363 3 8.50978 21.8142 31.5523 -0 -0 -0
356 3 11.2888 21.4458 32.8709 0 0 0
355 3 10.7789 22.8361 31.9477 -0 0 0
335 2 8.74677 20.1005 32.9109 -0 0 -0
333 2 9.17823 21.4882 32.3492 0 0 0
329 2 10.6697 21.7546 32.0286 0 0 0
362 3 9.27843 18.3559 34.0022 0 0 -0
361 3 10.6648 19.3012 33.4951 -0 0 0
354 3 10.1751 20.9822 35.2875 -0 -0 0
353 3 8.75596 20.042 35.7734 -0 0 -0
332 2 9.66126 19.3726 33.9144 0 0 -0
328 2 9.75556 19.9778 35.3436 -0 0 0
326 2 10.6502 19.1012 36.2525 -0 -0 -0
360 3 11.4317 19.1556 39.6662 0 -0 -0
359 3 11.1244 17.757 38.6437 -0 0 -0
352 3 11.2089 20.6577 37.6609 0 0 -0
351 3 9.74274 19.7818 38.0918 0 0 -0
349 3 10.2432 18.0911 36.298 -0 0 -0
327 2 10.751 19.669 37.6933 -0 -0 -0
925 4 14.831 0.372931 8.291 0 0 -0
1032 5 21.0862 15.8973 5.8244 0 -0 -0
936 5 13.4473 5.10416 5.85223 -0 -0 0
937 4 14.8469 5.76525 8.28688 0 -0 -0
1029 4 15.7501 15.4913 4.2245 -0 -0 0
948 5 13.4495 10.4893 5.84941 -0 -0 0
949 4 14.8519 11.1338 8.29234 -0 -0 -0
1022 5 17.6155 11.6057 8.2333 0 0 0
960 5 13.4527 15.886 5.84827 -0 -0 0
994 5 16.7654 2.02152 4.10374 0 -0 0
995 4 18.982 1.70308 5.92033 0 -0 -0
997 4 22.4501 0.369847 8.28018 -0 -0 0
998 5 17.5978 0.828727 8.22201 -0 0 -0
1021 4 22.4701 11.1324 8.2742 -0 0 -0
1020 5 21.0822 10.5002 5.82505 0 0 -0
1005 4 15.7416 4.71467 4.21836 0 0 -0
1006 5 16.7746 7.4116 4.10451 0 0 0
1007 4 18.99 7.09199 5.92912 0 -0 -0
1008 5 21.0788 5.1156 5.83157 -0 -0 0
1009 4 22.4643 5.7651 8.27173 -0 -0 -0
1010 5 17.6163 6.20736 8.23206 -0 -0 -0
1019 4 18.9905 12.4693 5.92862 -0 -0 -0
1018 5 16.7821 12.8028 4.09183 -0 -0 0
1017 4 15.7503 10.1043 4.22754 -0 -0 -0
928 5 13.7845 0.961058 10.7963 0 -0 -0
940 5 13.8067 6.35579 10.7823 0 0 0
952 5 13.8039 11.7994 10.7617 0 0 -0
1024 5 21.4451 11.7922 10.7449 0 -0 -0
1023 4 18.6768 11.34 10.9488 0 -0 0
999 4 18.6386 0.541864 10.8879 -0 0 -0
1000 5 21.4155 0.956331 10.7813 -0 0 -0
1011 4 18.6598 5.97189 10.9424 0 -0 0
1012 5 21.443 6.34512 10.7683 -0 0 0
1026 5 17.1854 10.3192 13.1292 0 -0 -0
1014 5 17.1793 4.92748 13.1338 -0 -0 -0
1039 4 19.3499 15.4949 15.1964 0 0 0
1038 5 17.2116 15.7623 13.1422 -0 -0 -0
1028 5 20.3403 12.8142 14.6305 0 0 -0
1027 4 19.3556 10.1234 15.1812 0 0 0
929 4 15.1899 1.73712 13.2137 0 -0 0
1025 4 22.7647 12.3415 13.2674 -0 -0 -0
1016 5 20.3632 7.42043 14.6445 -0 0 0
1015 4 19.375 4.74809 15.1149 -0 0 0
932 5 12.7909 2.01636 14.7494 0 -0 -0
1013 4 22.7921 7.03334 13.2463 0 -0 0
1004 5 20.4167 2.02016 14.7619 0 0 0
1001 4 22.7796 1.70419 13.2161 0 -0 0
967 4 11.7872 15.495 15.1357 -0 0 -0
956 5 12.7135 12.8092 14.6172 -0 0 0
955 4 11.7947 10.1152 15.1218 0 0 0
953 4 15.1803 12.3923 13.2621 -0 0 0
944 5 12.7367 7.41529 14.6329 -0 0 0
943 4 11.8057 4.73524 15.0623 -0 0 -0
941 4 15.2041 7.07065 13.2439 0 -0 0
213 1 18.9151 10.6698 20.6386 0 -0 -0
285 2 18.4403 5.78841 21.7652 -0 -0 0
267 1 17.1236 5.66397 21.6812 0 0 0
266 1 18.9037 5.15927 20.6844 0 0 -0
232 2 18.4383 11.1775 21.7732 -0 -0 -0
214 1 17.1159 11.1974 21.6871 -0 0 0
160 1 18.9337 16.1586 20.6071 0 -0 0
845 3 12.3793 5.25154 23.1137 -0 -0 -0
824 3 12.3394 5.26185 25.6323 0 0 0
474 3 12.3749 10.6372 23.1095 -0 -0 -0
453 3 12.3393 10.6502 25.6325 -0 -0 -0
421 3 12.3727 16.0269 23.1068 -0 -0 0
400 3 12.3395 16.0403 25.6328 -0 -0 0
315 3 20.0123 5.24867 23.1229 0 0 -0
314 3 18.7968 3.98347 22.9474 -0 -0 -0
305 3 18.2957 6.63781 24.3761 0 -0 -0
304 3 17.199 5.25657 24.3217 -0 -0 0
295 3 18.8551 3.8836 25.5961 -0 0 -0
294 3 19.9625 5.26198 25.6332 0 -0 -0
283 2 18.9418 5.05949 23.0436 0 -0 0
277 2 18.2487 5.54929 24.3441 0 -0 -0
272 2 18.9119 4.97189 25.6183 0 0 0
262 3 20.0089 10.6322 23.1201 0 -0 0
261 3 18.8007 9.35919 22.9514 -0 0 0
252 3 18.2964 12.0211 24.3716 0 -0 0
251 3 17.1983 10.6405 24.3226 0 0 -0
242 3 18.8553 9.2719 25.5989 0 0 -0
241 3 19.9623 10.6504 25.6336 0 -0 -0
230 2 18.9393 10.4363 23.0445 0 0 0
224 2 18.2483 10.9325 24.3439 -0 0 -0
219 2 18.9118 10.3602 25.6199 -0 -0 0
209 3 20.0048 16.0239 23.1147 -0 -0 0
208 3 18.8131 14.7311 22.9705 0 0 -0
198 3 17.1973 16.0272 24.3245 -0 0 -0
189 3 18.8552 14.6629 25.6017 -0 0 0
188 3 19.9624 16.0408 25.634 -0 0 -0
177 2 18.9378 15.8111 23.0492 0 0 0
166 2 18.9117 15.7513 25.6211 0 -0 -0
162 2 18.9046 15.7217 28.1724 -0 -0 -0
822 3 12.3329 5.19935 30.694 -0 0 -0
817 3 12.3313 5.23685 28.1716 0 -0 0
451 3 12.3322 10.5872 30.6938 0 0 0
446 3 12.3312 10.6249 28.1717 -0 -0 -0
398 3 12.3321 15.9761 30.6939 0 0 0
393 3 12.3316 16.0144 28.1719 0 -0 -0
293 3 18.8144 3.8617 30.7745 0 0 -0
292 3 19.9552 5.19923 30.694 -0 0 -0
291 3 17.1742 5.2035 26.8891 -0 -0 -0
290 3 18.2735 6.58585 26.9088 -0 0 0
289 3 17.1728 5.17644 29.4347 0 -0 0
288 3 18.2628 6.56884 29.4387 -0 -0 -0
287 3 19.9542 5.23685 28.1717 0 0 -0
286 3 18.8509 3.85312 28.1633 0 -0 -0
271 2 18.8953 4.94791 30.7334 0 0 0
270 2 18.2239 5.49701 26.9006 0 0 0
269 2 18.2196 5.47977 29.4508 0 0 0
268 2 18.9049 4.94175 28.1715 0 -0 -0
240 3 18.8134 9.24997 30.7742 -0 -0 -0
239 3 19.9544 10.5869 30.694 -0 -0 0
238 3 17.1742 10.5915 26.8893 -0 0 -0
237 3 18.2727 11.9752 26.909 -0 0 -0
236 3 17.1726 10.5643 29.4344 0 -0 -0
235 3 18.2624 11.9575 29.4391 -0 0 -0
234 3 19.9541 10.6248 28.1719 -0 0 -0
233 3 18.8504 9.24196 28.1629 -0 0 0
218 2 18.8944 10.3362 30.7339 0 0 -0
217 2 18.2235 10.8864 26.9015 0 -0 -0
216 2 18.2192 10.8684 29.4514 -0 -0 0
215 2 18.9046 10.3306 28.1722 0 -0 -0
187 3 18.812 14.6405 30.7742 -0 0 -0
186 3 19.9543 15.9755 30.6941 0 0 -0
185 3 17.1745 15.9809 26.8898 -0 0 -0
183 3 17.173 15.9533 29.4342 0 -0 0
181 3 19.9546 16.0142 28.1722 0 -0 0
180 3 18.8497 14.6331 28.1629 -0 -0 -0
165 2 18.8938 15.7266 30.7341 0 -0 0
313 3 15.3144 3.9153 33.1959 -0 0 0
310 3 16.1309 5.65287 31.5547 0 0 -0
303 3 18.9126 5.2797 32.8699 0 -0 -0
302 3 18.4006 6.66026 31.9306 -0 -0 0
282 2 16.3666 3.92636 32.9114 -0 0 -0
280 2 16.8036 5.3081 32.34 0 -0 -0
276 2 18.2943 5.57946 32.0237 0 0 0
260 3 15.3129 9.30227 33.1924 -0 -0 0
257 3 16.1324 11.0371 31.5511 -0 -0 -0
250 3 18.9131 10.669 32.8698 -0 -0 0
249 3 18.4016 12.0493 31.9302 -0 -0 -0
229 2 16.3667 9.31892 32.9145 0 0 -0
227 2 16.8027 10.7002 32.3419 0 -0 -0
223 2 18.2939 10.9687 32.0243 0 -0 -0
207 3 15.3118 14.6877 33.1883 0 -0 0
197 3 18.9128 16.0581 32.8696 -0 0 0
176 2 16.3675 14.7142 32.9181 -0 -0 0
174 2 16.8019 16.0948 32.3432 0 0 0
827 3 11.6474 2.87587 35.8137 0 0 -0
456 3 11.6463 8.26481 35.8136 0 -0 0
403 3 11.6465 13.6543 35.8137 -0 0 0
309 3 16.9019 2.17851 33.9927 0 0 -0
308 3 18.2853 3.12379 33.4857 0 0 0
301 3 17.798 4.80967 35.2825 -0 0 -0
300 3 16.3793 3.87272 35.7705 0 -0 0
297 3 19.269 2.87585 35.8141 0 0 0
279 2 17.284 3.19599 33.9103 -0 0 -0
275 2 17.3786 3.80527 35.3403 0 -0 0
256 3 16.8995 7.57534 34.0027 -0 0 0
255 3 18.2852 8.5233 33.4953 -0 0 -0
248 3 17.7977 10.202 35.2864 -0 0 0
247 3 16.3776 9.26436 35.7745 0 -0 0
244 3 19.2679 8.26468 35.814 0 -0 -0
226 2 17.2823 8.59227 33.9167 -0 0 -0
222 2 17.3773 9.19804 35.3452 -0 0 0
203 3 16.8987 12.9668 34.0018 -0 0 0
202 3 18.2851 13.9131 33.495 0 0 -0
195 3 17.7982 15.5921 35.2873 -0 -0 -0
194 3 16.378 14.6535 35.775 -0 -0 -0
191 3 19.2681 13.654 35.814 0 0 0
173 2 17.2827 13.9834 33.9173 0 0 -0
169 2 17.3778 14.5881 35.3459 0 0 -0
167 2 18.2725 13.7115 36.254 0 -0 0
848 3 14.899 1.65852 39.1051 0 0 -0
847 3 13.7437 2.1444 40.3589 0 -0 -0
846 3 13.4584 0.671752 39.4074 0 -0 0
842 3 13.4829 3.52245 38.2865 0 -0 -0
841 3 13.2134 2.05068 37.3515 -0 0 -0
814 2 13.8429 1.69111 39.3726 -0 -0 -0
811 2 13.0667 2.51584 38.3263 0 0 0
808 2 11.5519 2.59187 38.6573 -0 0 0
477 3 14.8985 7.04636 39.1041 -0 0 0
476 3 13.7438 7.53325 40.3583 0 -0 0
475 3 13.4574 6.06014 39.4076 -0 0 -0
471 3 13.483 8.91031 38.2857 0 -0 -0
470 3 13.2127 7.43864 37.3511 0 0 0
443 2 13.8425 7.07923 39.3723 -0 -0 0
440 2 13.0664 7.90385 38.326 0 0 0
437 2 11.5519 7.98096 38.6577 0 -0 -0
424 3 14.8984 12.4362 39.1039 0 0 0
423 3 13.7439 12.9231 40.3585 -0 0 -0
422 3 13.4574 11.4502 39.4073 -0 0 -0
418 3 13.4832 14.3002 38.2854 0 -0 -0
417 3 13.2125 12.8283 37.3515 0 0 -0
390 2 13.8425 12.4693 39.3724 0 -0 -0
387 2 13.0664 13.2939 38.3261 -0 -0 -0
384 2 11.5519 13.371 38.6579 0 -0 0
318 3 22.5214 1.65863 39.1049 0 -0 -0
317 3 21.3662 2.14439 40.359 -0 -0 0
316 3 21.0809 0.671778 39.4073 -0 0 0
312 3 21.1049 3.5225 38.2864 0 0 -0
311 3 20.8352 2.0508 37.3517 0 -0 -0
307 3 19.0537 2.98774 39.6663 0 -0 -0
306 3 18.7473 1.58882 38.6434 0 0 0
299 3 18.8316 4.48919 37.6591 -0 0 0
298 3 17.3648 3.61502 38.0913 0 0 -0
296 3 17.8662 1.92166 36.2979 -0 0 0
284 2 21.4654 1.69115 39.3727 -0 -0 -0
281 2 20.6888 2.51583 38.3266 -0 0 -0
278 2 19.1739 2.59177 38.6579 -0 0 -0
274 2 18.373 3.50097 37.6931 0 0 -0
273 2 18.2726 2.93204 36.2524 -0 -0 0
265 3 22.521 7.04646 39.104 0 -0 0
264 3 21.3664 7.53322 40.3584 -0 0 0
263 3 21.0799 6.06019 39.4075 -0 0 -0
259 3 21.1048 8.91037 38.2855 -0 -0 -0
258 3 20.8343 7.43873 37.3514 0 -0 -0
254 3 19.0541 8.3774 39.6666 -0 0 0
253 3 18.7461 6.97838 38.6444 0 -0 -0
246 3 18.8321 9.87816 37.6591 -0 -0 -0
245 3 17.365 9.00436 38.0918 -0 -0 0
243 3 17.8649 7.31153 36.2987 0 -0 0
231 2 21.4651 7.07927 39.3724 0 -0 -0
228 2 20.6885 7.90384 38.3264 0 -0 0
225 2 19.1739 7.98082 38.6584 -0 -0 -0
221 2 18.3733 8.89006 37.6939 -0 -0 0
220 2 18.2721 8.32159 36.2537 -0 -0 0
212 3 22.5209 12.4363 39.1038 -0 -0 -0
211 3 21.3666 12.9231 40.3587 -0 -0 -0
210 3 21.0799 11.4503 39.4072 -0 0 0
206 3 21.1051 14.3003 38.2851 -0 0 0
205 3 20.8341 12.8283 37.3518 0 -0 0
201 3 19.0539 13.7671 39.667 0 -0 0
200 3 18.7463 12.3684 38.6439 0 -0 0
193 3 18.8323 15.2682 37.6593 0 -0 0
192 3 17.3649 14.394 38.0917 -0 -0 -0
190 3 17.865 12.7015 36.2987 -0 0 -0
178 2 21.4651 12.4693 39.3726 -0 -0 -0
175 2 20.6885 13.2939 38.3266 0 -0 0
172 2 19.1739 13.3709 38.6587 -0 -0 -0
168 2 18.3734 14.2801 37.6942 -0 -0 0
924 5 13.4436 -0.279244 5.85366 0 -0 0
961 4 14.8529 16.4943 8.29892 0 0 0
1058 5 17.589 27.7974 8.21863 -0 -0 0
972 5 13.4528 21.2855 5.84925 0 0 0
973 4 14.8468 21.8854 8.29669 0 -0 0
1057 4 22.4516 27.2935 8.28302 -0 0 0
984 5 13.4455 26.6756 5.85141 0 0 -0
985 4 14.83 27.2995 8.29398 0 -0 0
1056 5 21.0774 26.6887 5.83403 0 0 -0
993 4 15.7345 -0.677391 4.21421 0 -0 0
996 5 21.075 -0.266867 5.83613 0 0 -0
1030 5 16.7789 18.1934 4.09025 0 -0 -0
1031 4 18.9864 17.8509 5.92288 0 -0 0
1033 4 22.473 16.4876 8.28236 0 -0 -0
1034 5 17.6079 17.0191 8.23575 -0 0 -0
1055 4 18.9784 28.6466 5.91281 -0 0 -0
1054 5 16.7629 28.9719 4.09881 -0 0 -0
1041 4 15.7403 20.8795 4.20969 0 -0 0
1042 5 16.7694 23.5828 4.09624 -0 -0 -0
1043 4 18.9822 23.2477 5.91633 0 0 0
1044 5 21.0852 21.2978 5.82897 0 0 0
1045 4 22.4685 21.8771 8.28258 0 -0 0
1046 5 17.6004 22.416 8.23064 0 0 0
1053 4 15.7335 26.2704 4.20966 -0 -0 -0
964 5 13.7932 17.2376 10.7448 -0 -0 -0
1060 5 21.3995 27.9663 10.7574 0 0 -0
1059 4 18.6495 27.4183 10.8533 -0 0 -0
976 5 13.7774 22.6268 10.7457 -0 0 0
988 5 13.7664 27.9645 10.7757 0 -0 0
1035 4 18.6899 16.6706 10.9204 0 -0 0
1036 5 21.4355 17.2426 10.7243 -0 -0 0
1047 4 18.6837 22.0105 10.8777 0 0 0
1048 5 21.4176 22.6336 10.7251 -0 -0 -0
1064 5 20.4346 28.9767 14.84 -0 0 0
1063 4 19.4008 26.2622 15.0233 -0 -0 0
1062 5 17.2242 26.6642 13.1663 0 0 -0
1061 4 22.7321 28.5784 13.2209 0 -0 -0
1052 5 20.3944 23.5974 14.7477 -0 -0 0
1051 4 19.3618 20.872 15.1693 -0 -0 0
1050 5 17.2436 21.2304 13.1634 -0 0 -0
1049 4 22.7181 23.0706 13.2479 -0 -0 -0
1040 5 20.35 18.2081 14.663 0 0 0
1037 4 22.7354 17.6777 13.2666 0 -0 -0
1003 4 19.4129 -0.663964 14.9748 -0 -0 -0
1002 5 17.1857 -0.368502 13.1485 0 0 0
992 5 12.8088 28.9723 14.8263 0 0 -0
991 4 11.8178 26.2654 14.9748 -0 -0 0
989 4 15.1427 28.619 13.2153 -0 -0 0
980 5 12.7644 23.592 14.733 -0 0 -0
979 4 11.7898 20.8766 15.1122 0 -0 0
977 4 15.1286 23.122 13.2411 -0 0 -0
968 5 12.7203 18.2025 14.6462 -0 0 0
965 4 15.1504 17.7354 13.2601 -0 -0 0
931 4 11.8297 -0.66912 14.9334 -0 0 0
107 1 19.0092 21.7782 20.6183 -0 -0 0
179 2 18.4223 16.532 21.7752 0 0 0
161 1 17.1112 16.7146 21.6975 -0 0 0
108 1 17.1659 22.3647 21.742 -0 -0 0
126 2 18.2836 21.6419 21.7231 -0 0 0
368 3 12.3669 21.4274 23.0947 -0 -0 -0
347 3 12.3391 21.4299 25.6332 -0 -0 0
199 3 18.2967 17.4074 24.3662 0 0 0
171 2 18.2474 16.3187 24.344 0 0 -0
156 3 19.9867 21.447 23.0771 0 0 -0
155 3 18.8642 20.0884 23.0423 0 -0 0
146 3 18.2954 22.793 24.3531 0 -0 -0
145 3 17.1921 21.4134 24.3275 -0 0 -0
136 3 18.8549 20.054 25.6041 0 0 -0
135 3 19.9614 21.4311 25.6324 -0 -0 0
124 2 18.9311 21.1763 23.0532 -0 0 -0
118 2 18.2425 21.7043 24.3413 -0 0 0
113 2 18.9104 21.1425 25.6204 -0 -0 0
109 2 18.9045 21.1111 28.1727 0 0 0
345 3 12.3306 21.3674 30.6959 0 0 -0
340 3 12.3318 21.4026 28.1727 0 -0 -0
184 3 18.2715 17.3668 26.9095 -0 -0 0
182 3 18.2614 17.3483 29.4396 0 -0 -0
164 2 18.2232 16.2779 26.9021 -0 0 -0
163 2 18.2191 16.2592 29.4515 -0 -0 0
134 3 18.8099 20.0342 30.7773 0 -0 0
133 3 19.9528 21.3666 30.6959 0 -0 0
132 3 17.1746 21.3688 26.8906 -0 -0 0
131 3 18.2704 22.7564 26.9102 -0 -0 0
130 3 17.1729 21.3417 29.435 -0 -0 0
129 3 18.2602 22.7382 29.4397 0 0 -0
128 3 19.9548 21.4024 28.1727 0 0 0
127 3 18.8491 20.0226 28.1634 0 0 0
112 2 18.8918 21.1203 30.7368 -0 0 -0
111 2 18.2228 21.6675 26.9022 -0 -0 0
110 2 18.2185 21.6491 29.4521 -0 -0 -0
204 3 16.1329 16.4219 31.5472 0 0 -0
196 3 18.4036 17.4401 31.9307 -0 0 0
170 2 18.2938 16.3597 32.0246 -0 0 0
154 3 15.3139 20.075 33.1873 -0 0 -0
151 3 16.1332 21.8086 31.5484 0 -0 0
144 3 18.9111 21.4464 32.8713 -0 -0 -0
143 3 18.4017 22.8369 31.947 0 -0 -0
123 2 16.3694 20.1059 32.9169 -0 0 0
121 2 16.8 21.4919 32.3504 -0 0 -0
117 2 18.2919 21.7556 32.0292 -0 -0 0
350 3 11.6463 19.0431 35.8137 -0 0 -0
150 3 16.8986 18.3568 34.0012 -0 -0 0
149 3 18.2858 19.3015 33.4949 -0 0 -0
142 3 17.797 20.9817 35.2886 -0 0 0
141 3 16.3778 20.041 35.7745 -0 -0 0
138 3 19.2682 19.0425 35.814 0 -0 0
120 2 17.2832 19.3732 33.9164 0 -0 0
116 2 17.3778 19.9772 35.3455 -0 0 -0
114 2 18.2725 19.1005 36.2536 0 0 -0
371 3 14.8984 17.8254 39.1041 -0 -0 -0
370 3 13.7438 18.3122 40.3586 0 0 -0
369 3 13.4574 16.8394 39.4073 0 -0 0
365 3 13.4826 19.6896 38.2864 -0 0 -0
364 3 13.2127 18.2175 37.3516 -0 -0 0
337 2 13.8425 17.8585 39.3724 0 0 -0
334 2 13.0662 18.6831 38.3262 0 0 0
331 2 11.5516 18.7597 38.6577 -0 -0 -0
159 3 22.5209 17.8254 39.1039 -0 0 -0
158 3 21.3665 18.3121 40.3588 -0 0 0
157 3 21.0799 16.8394 39.4072 0 0 -0
153 3 21.1047 19.6896 38.2861 0 0 0
152 3 20.8344 18.2174 37.3519 0 0 0
148 3 19.0536 19.1552 39.6669 0 0 0
147 3 18.7464 17.7568 38.6437 0 -0 0
140 3 18.8305 20.6574 37.6611 -0 0 -0
139 3 17.3643 19.781 38.0919 0 -0 -0
137 3 17.8649 18.0905 36.2983 0 0 -0
125 2 21.4651 17.8585 39.3726 0 -0 -0
122 2 20.6885 18.683 38.3266 -0 0 -0
119 2 19.1738 18.7594 38.6584 -0 0 -0
115 2 18.3729 19.6686 37.6942 0 -0 -0
1066 5 24.3953 2.02102 4.08658 0 0 0
1067 4 26.5974 1.69587 5.90525 0 0 0
1069 4 30.0648 0.38145 8.26003 -0 0 0
1070 5 25.2244 0.824096 8.20754 -0 -0 -0
1173 4 30.9776 15.4891 4.17703 0 -0 -0
1166 5 32.8612 11.6102 8.19913 0 -0 -0
1077 4 23.3636 4.7126 4.20493 -0 0 0
1078 5 24.404 7.4105 4.08445 -0 0 0
1079 4 26.603 7.08505 5.9104 -0 0 -0
1080 5 28.7034 5.12068 5.82101 0 -0 0
1081 4 30.0752 5.77565 8.24793 -0 -0 0
1082 5 25.2436 6.202 8.21573 -0 0 -0
1163 4 34.2149 12.453 5.88044 0 -0 -0
1162 5 32.0245 12.8019 4.06697 0 -0 0
1089 4 23.3744 10.1018 4.21316 -0 0 0
1090 5 24.4113 12.8019 4.06929 -0 0 -0
1091 4 26.6039 12.4643 5.90655 0 0 -0
1092 5 28.7059 10.5039 5.81414 0 0 0
1093 4 30.08 11.1487 8.24541 -0 0 0
1094 5 25.2453 11.5969 8.21317 -0 0 -0
1161 4 30.977 10.1004 4.17997 0 0 -0
1154 5 32.8588 6.2174 8.20269 0 -0 0
1101 4 23.3751 15.49 4.2104 0 -0 0
1104 5 28.7095 15.8997 5.81362 0 -0 0
1138 5 32.012 2.02102 4.08125 -0 -0 0
1139 4 34.21 1.67931 5.88258 0 -0 0
1142 5 32.8445 0.839076 8.20053 -0 0 -0
1151 4 34.214 7.06914 5.88457 0 -0 0
1149 4 30.9697 4.71064 4.17721 0 -0 -0
1150 5 32.0188 7.41076 4.07871 0 -0 0
1071 4 26.2514 0.552433 10.8691 0 0 -0
1072 5 29.0431 0.941706 10.7724 -0 0 0
1167 4 33.8793 11.3322 10.8603 0 -0 0
1083 4 26.2698 5.98137 10.9169 -0 -0 -0
1084 5 29.0695 6.32872 10.7574 -0 0 0
1095 4 26.2838 11.3544 10.919 0 -0 -0
1096 5 29.0738 11.7654 10.7356 -0 0 0
1155 4 33.8697 5.95038 10.862 -0 0 -0
1143 4 33.8594 0.531957 10.8359 -0 0 -0
1098 5 24.8555 10.3493 13.1301 -0 -0 -0
1086 5 24.8415 4.95618 13.133 0 0 0
1182 5 32.5474 15.8379 13.1485 0 0 -0
1170 5 32.5257 10.407 13.1396 0 -0 -0
1158 5 32.507 5.0131 13.1421 -0 -0 -0
1111 4 26.9344 15.4994 15.2205 0 0 -0
1110 5 24.8822 15.7934 13.1422 0 -0 0
1100 5 28.002 12.823 14.6897 -0 -0 -0
1099 4 26.9379 10.1303 15.2059 0 -0 -0
1073 4 30.37 1.66562 13.2095 0 0 -0
1097 4 30.3516 12.31 13.2509 0 -0 -0
1088 5 28.0193 7.42806 14.6998 -0 0 0
1087 4 26.9654 4.75587 15.1403 -0 -0 0
1076 5 28.0678 2.02246 14.8064 -0 0 -0
1085 4 30.3756 6.99575 13.232 0 -0 -0
1 1 26.6048 10.6848 20.6482 0 -0 -0
656 2 33.7223 5.79061 21.7754 0 -0 0
638 1 32.4234 5.6724 21.6355 -0 0 -0
20 2 26.0796 11.1708 21.7727 -0 -0 0
603 2 33.7255 11.1508 21.778 -0 0 0
585 1 32.425 11.2258 21.6335 -0 -0 -0
2 1 24.7655 11.2018 21.6641 0 0 0
73 2 26.0788 5.78828 21.7658 -0 -0 0
55 1 24.7699 5.65632 21.6614 -0 -0 0
54 1 26.5841 5.17354 20.6938 0 0 0
792 3 27.6323 16.0238 23.1193 0 0 -0
791 3 26.4454 14.7226 22.9833 0 -0 0
781 3 24.8204 16.0261 24.323 -0 0 -0
772 3 26.4773 14.6637 25.6027 0 -0 0
771 3 27.5857 16.0413 25.6344 -0 0 -0
760 2 26.5668 15.8034 23.055 -0 0 0
749 2 26.5348 15.752 25.6216 -0 -0 0
685 3 34.0507 3.97886 22.9557 0 0 0
676 3 33.537 6.6366 24.3751 -0 0 0
675 3 32.4458 5.25288 24.3196 0 -0 0
666 3 34.0994 3.88457 25.5987 0 0 0
654 2 34.1994 5.05417 23.0542 0 -0 0
648 2 33.4948 5.54783 24.3454 -0 -0 -0
643 2 34.1583 4.97277 25.6198 -0 0 0
632 3 34.0626 9.34428 22.9737 0 -0 -0
623 3 33.5382 12.0193 24.3674 0 -0 0
622 3 32.4444 10.6374 24.3204 -0 -0 0
613 3 34.0992 9.27321 25.6022 0 -0 -0
601 2 34.1993 10.4222 23.0598 0 -0 -0
595 2 33.494 10.9304 24.345 0 -0 0
590 2 34.1579 10.3615 25.6216 0 0 -0
579 3 34.0837 14.7077 23.0087 0 -0 -0
569 3 32.442 16.0252 24.3224 -0 0 0
560 3 34.0989 14.6646 25.6046 -0 -0 -0
548 2 34.1978 15.7901 23.0684 0 0 -0
537 2 34.1573 15.7529 25.6225 0 0 0
103 3 27.6405 5.24672 23.1291 -0 -0 0
102 3 26.4229 3.98272 22.9496 0 -0 0
93 3 25.9169 6.63771 24.3754 -0 -0 0
92 3 24.8227 5.2555 24.3201 0 -0 -0
83 3 26.4774 3.88405 25.5967 -0 -0 -0
82 3 27.5859 5.26205 25.6338 -0 0 0
71 2 26.5701 5.05838 23.0465 0 -0 0
65 2 25.8722 5.54908 24.3439 0 0 0
60 2 26.5352 4.9723 25.6186 0 0 -0
50 3 27.6376 10.6298 23.127 -0 -0 -0
49 3 26.4291 9.3553 22.9573 -0 0 -0
40 3 25.9176 12.0206 24.3698 0 -0 0
39 3 24.822 10.6393 24.3209 -0 0 -0
30 3 26.4776 9.27248 25.5998 0 -0 -0
29 3 27.5858 10.6507 25.6342 0 -0 0
18 2 26.5685 10.4325 23.0487 0 0 -0
12 2 25.8718 10.9318 24.3436 0 0 -0
7 2 26.5351 10.3608 25.6203 -0 0 -0
3 2 26.5281 10.3308 28.1722 0 -0 0
770 3 26.4338 14.6408 30.7744 -0 0 0
769 3 27.5779 15.9753 30.6942 0 -0 0
768 3 24.798 15.9806 26.8899 0 -0 0
766 3 24.7966 15.953 29.4341 0 0 0
764 3 27.5782 16.014 28.1723 -0 0 0
763 3 26.4715 14.6334 28.1629 -0 -0 -0
748 2 26.5174 15.7268 30.734 -0 0 0
745 2 26.5281 15.7219 28.1724 -0 -0 -0
664 3 34.058 3.86239 30.7746 -0 -0 0
662 3 32.4206 5.20279 26.8894 0 -0 0
661 3 33.5161 6.58708 26.9095 -0 0 -0
660 3 32.419 5.17584 29.4346 0 0 0
659 3 33.5059 6.56949 29.439 0 0 -0
657 3 34.0944 3.85388 28.1635 0 -0 0
642 2 34.1412 4.94839 30.7325 -0 0 0
641 2 33.4698 5.4981 26.9008 -0 0 0
640 2 33.4655 5.4803 29.45 -0 -0 -0
639 2 34.1511 4.94238 28.1711 -0 -0 0
611 3 34.057 9.25078 30.7744 0 0 0
609 3 32.4206 10.591 26.8897 0 0 -0
608 3 33.5152 11.9766 26.9099 0 -0 -0
607 3 32.419 10.5639 29.4343 0 0 -0
606 3 33.5054 11.9581 29.4392 -0 -0 -0
604 3 34.0937 9.24267 28.1633 0 0 0
589 2 34.1407 10.3368 30.7328 -0 0 -0
588 2 33.4694 10.8876 26.9018 -0 -0 -0
587 2 33.4653 10.8689 29.4505 0 -0 -0
586 2 34.151 10.3311 28.1717 -0 0 -0
558 3 34.0559 14.6411 30.7744 0 0 -0
556 3 32.4207 15.9806 26.8902 -0 -0 0
554 3 32.4193 15.9531 29.4342 0 -0 0
551 3 34.0932 14.6335 28.1632 -0 0 -0
536 2 34.1403 15.7271 30.733 -0 -0 -0
533 2 34.151 15.7219 28.1718 0 0 0
81 3 26.4364 3.86194 30.7746 -0 -0 0
80 3 27.5786 5.19896 30.6942 0 0 0
79 3 24.7976 5.20326 26.8891 -0 0 -0
78 3 25.8951 6.58622 26.9089 -0 0 0
77 3 24.7961 5.17621 29.4345 0 0 0
76 3 25.8846 6.56902 29.4387 0 0 0
75 3 27.5776 5.23661 28.1719 -0 0 -0
74 3 26.4729 3.85336 28.1633 0 0 -0
59 2 26.5186 4.94805 30.7333 0 -0 0
58 2 25.8471 5.49731 26.9007 0 0 -0
57 2 25.8429 5.47989 29.4507 0 0 -0
56 2 26.5282 4.94193 28.1715 0 0 0
28 3 26.4353 9.2503 30.7743 0 0 -0