Created by /home/rramji/scripts/createLammpsInput.pl on Mon Aug 28 17:25:24 2023

         109 atoms
         110 bonds
         204 angles
         299 dihedrals
          45 impropers

           7 atom types
          12 bond types
           4 angle types
           9 dihedral types
           1 improper types

		   0.000000  29.270300 xlo xhi
		   0.000000  18.157600 ylo yhi
		   0.000000  17.068300 zlo zhi

Masses

    1 1.2011E+01 # C_R    
    2 1.0080E+00 # H_     
    3 1.2011E+01 # C_3    
    4 1.5999E+01 # O_2    
    5 1.5999E+01 # O_R    
    6 3.2060E+01 # S_3    
    7 1.0080E+00 # H___A  

Pair Coeffs

    1    0.09510    3.47299 # C_R C_R 
    2    0.01520    2.84642 # H_ H_ 
    3    0.09510    3.47299 # C_3 C_3 
    4    0.09570    3.03315 # O_2 O_2 
    5    0.09570    3.03315 # O_R O_R 
    6    0.34400    3.59032 # S_3 S_3 
    7          0    2.84642 # H___A H___A 

Bond Coeffs

    1      350     1.02 # C_R H_ 
    2      525     1.39 # C_R C_R 
    3      350     1.46 # C_R C_3 
    4      350     1.32 # O_2 C_3 
    5      350     1.53 # C_3 C_3 
    6      525     1.35 # O_R C_R 
    7      350     1.42 # O_R C_3 
    8      350     1.09 # C_3 H_ 
    9      350      1.8 # S_3 C_3 
   10      350     1.36 # S_3 H___A 
   11      700     1.25 # O_2 C_R 
   12      350     0.98 # O_R H___A 

Angle Coeffs

    1       50      120 # X C_R X 
    2       50  109.471 # X C_3 X 
    3       50      120 # X O_R X 
    4       50     92.1 # X S_3 X 

Dihedral Coeffs

    1 0.0833333       -1        6 # C_R C_R C_3 X 
    2 0.166667       -1        6 # C_R O_R C_3 X 
    3 0.0833333       -1        6 # O_2 C_R C_3 X 
    4 0.0833333       -1        6 # O_R C_R C_3 X 
    5 0.111111        1        3 # X C_3 C_3 X 
    6 0.166667        1        3 # X C_R C_3 X 
    7    3.125       -1        2 # X C_R C_R X 
    8     6.25       -1        2 # X O_R C_R X 
    9 0.333333        1        3 # X S_3 C_3 X 

Improper Coeffs

    1  13.3333        0 # C_R X X X 

Atoms

       1        1        1 -0.13170000    3.67920    4.49760   -0.41400    0    0    0
       2        1        2  0.16830000    4.53190    3.90450   -0.20420    0    0    0
       3        1        1 -0.13170000    2.66450    4.00030   -1.22220    0    0    0
       4        1        1 -0.13170000    1.54740    4.78360   -1.49630    0    0    0
       5        1        1 -0.12510000    1.40520    6.06200   -0.94850    0    0    0
       6        1        3  0.23150000    0.12770    6.86500   -1.28030    0    0    0
       7        1        4 -0.92340000    0.35830    7.20900   -2.66050    0    0    0
       8        1        1 -0.12510000   -1.16500    6.01640   -1.35330    0    0    0
       9        1        1 -0.13170000   -2.17050    6.39430   -2.25140    0    0    0
      10        1        1 -0.13170000   -3.35610    5.67780   -2.34710    0    0    0
      11        1        1  0.10200000   -3.55310    4.57190   -1.53220    0    0    0
      12        1        5 -0.34810000   -4.74830    3.91020   -1.66100    0    0    0
      13        1        3  0.13880000   -5.45240    3.25230   -0.59690    0    0    0
      14        1        3 -0.14190000   -6.91760    3.05440   -0.99240    0    0    0
      15        1        3 -0.14190000   -7.80700    2.57510    0.16580    0    0    0
      16        1        3 -0.14190000   -9.26040    2.46050   -0.32190    0    0    0
      17        1        3 -0.14190000  -10.21960    2.10890    0.82430    0    0    0
      18        1        3 -0.14190000  -11.66340    2.03480    0.30230    0    0    0
      19        1        3 -0.14190000  -12.64780    1.76720    1.44950    0    0    0
      20        1        3 -0.14190000  -14.09370    1.71530    0.93470    0    0    0
      21        1        3 -0.14190000  -15.06400    1.49400    2.10500    0    0    0
      22        1        3  0.08970000  -16.52030    1.46100    1.63400    0    0    0
      23        1        6 -0.39650000  -17.55570    1.25690    3.10490    0    0    0
      24        1        1 -0.13170000   -2.56670    4.16130   -0.63730    0    0    0
      25        1        1 -0.13170000   -1.37710    4.88430   -0.55420    0    0    0
      26        1        1 -0.13170000    2.45990    6.56540   -0.18140    0    0    0
      27        1        1 -0.13170000    3.58030    5.78640    0.09670    0    0    0
      28        1        2  0.16830000    2.74330    3.03090   -1.64250    0    0    0
      29        1        2  0.16830000    0.79510    4.41870   -2.14800    0    0    0
      30        1        2  0.16830000   -2.01070    7.23290   -2.88110    0    0    0
      31        1        2  0.16830000   -4.10210    5.96700   -3.03960    0    0    0
      32        1        2  0.09960000   -4.98370    2.28720   -0.39820    0    0    0
      33        1        2  0.09960000   -5.39550    3.87930    0.29410    0    0    0
      34        1        2  0.09960000   -7.29450    4.01050   -1.36170    0    0    0
      35        1        2  0.09960000   -6.95900    2.33810   -1.81530    0    0    0
      36        1        2  0.09960000   -7.46050    1.60190    0.52150    0    0    0
      37        1        2  0.09960000   -7.75370    3.29510    0.98530    0    0    0
      38        1        2  0.09960000   -9.56850    3.41270   -0.76130    0    0    0
      39        1        2  0.09960000   -9.32180    1.69130   -1.09590    0    0    0
      40        1        2  0.09960000   -9.93720    1.14620    1.25660    0    0    0
      41        1        2  0.09960000  -10.15400    2.87770    1.59690    0    0    0
      42        1        2  0.09960000  -11.92400    2.98020   -0.17970    0    0    0
      43        1        2  0.09960000  -11.74130    1.23560   -0.43870    0    0    0
      44        1        2  0.09960000  -12.40010    0.81570    1.92570    0    0    0
      45        1        2  0.09960000  -12.56200    2.56620    2.18900    0    0    0
      46        1        2  0.09960000  -14.33620    2.65690    0.43630    0    0    0
      47        1        2  0.09960000  -14.19610    0.89990    0.21460    0    0    0
      48        1        2  0.09960000  -14.83480    0.54890    2.60160    0    0    0
      49        1        2  0.09960000  -14.95240    2.30170    2.83130    0    0    0
      50        1        2  0.09960000  -16.77490    2.39650    1.13250    0    0    0
      51        1        2  0.09960000  -16.67670    0.62400    0.95100    0    0    0
      52        1        7  0.19770000  -18.73840    1.25470    2.47950    0    0    0
      53        1        2  0.16830000   -2.70800    3.29980   -0.04110    0    0    0
      54        1        2  0.16830000   -0.61730    4.56620    0.11070    0    0    0
      55        1        2  0.16830000    2.43290    7.55640    0.17150    0    0    0
      56        1        2  0.16830000    4.36490    6.18400    0.68710    0    0    0
      57        1        1  0.66790000    0.75550   11.39260   -2.79990    0    0    0
      58        1        3 -0.07980000   -0.00160   10.16510   -2.31420    0    0    0
      59        1        3 -0.14190000  -11.03670    1.53520    5.11310    0    0    0
      60        1        2  0.09960000   -0.10140    9.48720   -3.16020    0    0    0
      61        1        2  0.09960000  -11.19430    1.66750    4.04270    0    0    0
      62        1        2  0.09960000  -11.28880    0.50130    5.36180    0    0    0
      63        1        2  0.09960000   -0.99930   10.48360   -2.02240    0    0    0
      64        1        3 -0.14190000    0.68780    9.44190   -1.13530    0    0    0
      65        1        2  0.09960000    1.65390    9.06610   -1.47810    0    0    0
      66        1        3 -0.06040000   -0.15010    8.25720   -0.56930    0    0    0
      67        1        2  0.09960000   -1.18740    8.46940   -0.82210    0    0    0
      68        1        3 -0.14190000   -0.07440    8.33940    0.98410    0    0    0
      69        1        3 -0.14190000   -0.65690    7.20070    1.82980    0    0    0
      70        1        2  0.09960000   -0.22280    6.25700    1.50480    0    0    0
      71        1        3 -0.14190000   -2.19370    7.13350    1.80640    0    0    0
      72        1        2  0.09960000   -2.53430    7.04230    0.77430    0    0    0
      73        1        2  0.09960000   -2.60200    8.06180    2.20940    0    0    0
      74        1        3 -0.00120000   -2.76130    5.95300    2.61580    0    0    0
      75        1        2  0.09960000   -3.81540    5.85760    2.40560    0    0    0
      76        1        1 -0.27250000   -2.48880    6.06260    4.10760    0    0    0
      77        1        2  0.16830000   -1.45710    6.05290    4.35690    0    0    0
      78        1        1 -0.27250000   -3.40740    6.15800    5.08410    0    0    0
      79        1        2  0.16830000   -3.09890    6.22000    6.09890    0    0    0
      80        1        3 -0.00120000   -4.91160    6.15300    4.90360    0    0    0
      81        1        3 -0.14190000   -5.49770    4.74900    5.11750    0    0    0
      82        1        2  0.09960000   -5.02490    4.06580    4.40950    0    0    0
      83        1        3 -0.14190000   -7.02300    4.68300    4.95030    0    0    0
      84        1        2  0.09960000   -7.28890    4.95500    3.92680    0    0    0
      85        1        2  0.09960000   -7.49310    5.39340    5.63470    0    0    0
      86        1        3 -0.14190000   -7.53130    3.26660    5.26150    0    0    0
      87        1        2  0.09960000   -7.03290    2.54750    4.60770    0    0    0
      88        1        3 -0.14190000   -9.05100    3.16810    5.06290    0    0    0
      89        1        2  0.09960000   -9.29550    3.37600    4.01990    0    0    0
      90        1        2  0.09960000   -9.54170    3.91200    5.69410    0    0    0
      91        1        3 -0.14190000   -9.55190    1.76350    5.44120    0    0    0
      92        1        2  0.09960000   -8.96630    1.01730    4.89950    0    0    0
      93        1        3 -0.22340000  -11.98510    2.46350    5.88550    0    0    0
      94        1        2  0.09960000  -11.80550    2.37550    6.95850    0    0    0
      95        1        2  0.09960000  -13.01940    2.18060    5.68280    0    0    0
      96        1        2  0.09960000  -11.84620    3.50090    5.58060    0    0    0
      97        1        2  0.09960000   -9.39260    1.59810    6.50960    0    0    0
      98        1        2  0.09960000   -7.28730    3.01770    6.29740    0    0    0
      99        1        2  0.09960000   -5.23240    4.42220    6.12550    0    0    0
     100        1        2  0.09960000   -5.19780    6.54530    3.93830    0    0    0
     101        1        2  0.09960000   -5.35010    6.84110    5.61550    0    0    0
     102        1        2  0.09960000   -2.33060    5.03090    2.24940    0    0    0
     103        1        2  0.09960000   -0.33410    7.36450    2.85850    0    0    0
     104        1        2  0.09960000   -0.57300    9.26140    1.28820    0    0    0
     105        1        2  0.09960000    0.96130    8.46140    1.29000    0    0    0
     106        1        2  0.09960000    0.87550   10.18410   -0.35890    0    0    0
     107        1        4 -0.55940000    1.70770   11.92180   -2.24410    0    0    0
     108        1        5 -0.64090000    0.28540   11.94030   -3.93490    0    0    0
     109        1        7  0.51190000    0.89200   12.65890   -4.10980    0    0    0


Bonds

       1        1        1        2 
       2        2        1        3 
       3        2        1       27 
       4        2        3        4 
       5        1        3       28 
       6        2        4        5 
       7        1        4       29 
       8        3        5        6 
       9        2        5       26 
      10        4        6        7 
      11        3        6        8 
      12        5        6       66 
      13        2        8        9 
      14        2        8       25 
      15        2        9       10 
      16        1        9       30 
      17        2       10       11 
      18        1       10       31 
      19        6       11       12 
      20        2       11       24 
      21        7       12       13 
      22        5       13       14 
      23        8       13       32 
      24        8       13       33 
      25        5       14       15 
      26        8       14       34 
      27        8       14       35 
      28        5       15       16 
      29        8       15       36 
      30        8       15       37 
      31        5       16       17 
      32        8       16       38 
      33        8       16       39 
      34        5       17       18 
      35        8       17       40 
      36        8       17       41 
      37        5       18       19 
      38        8       18       42 
      39        8       18       43 
      40        5       19       20 
      41        8       19       44 
      42        8       19       45 
      43        5       20       21 
      44        8       20       46 
      45        8       20       47 
      46        5       21       22 
      47        8       21       48 
      48        8       21       49 
      49        9       22       23 
      50        8       22       50 
      51        8       22       51 
      52       10       23       52 
      53        2       24       25 
      54        1       24       53 
      55        1       25       54 
      56        2       26       27 
      57        1       26       55 
      58        1       27       56 
      59        3       57       58 
      60       11       57      107 
      61        6       57      108 
      62        8       58       60 
      63        8       58       63 
      64        5       58       64 
      65        8       59       61 
      66        8       59       62 
      67        5       59       91 
      68        5       59       93 
      69        8       64       65 
      70        5       64       66 
      71        8       64      106 
      72        8       66       67 
      73        5       66       68 
      74        5       68       69 
      75        8       68      104 
      76        8       68      105 
      77        8       69       70 
      78        5       69       71 
      79        8       69      103 
      80        8       71       72 
      81        8       71       73 
      82        5       71       74 
      83        8       74       75 
      84        3       74       76 
      85        8       74      102 
      86        1       76       77 
      87        2       76       78 
      88        1       78       79 
      89        3       78       80 
      90        5       80       81 
      91        8       80      100 
      92        8       80      101 
      93        8       81       82 
      94        5       81       83 
      95        8       81       99 
      96        8       83       84 
      97        8       83       85 
      98        5       83       86 
      99        8       86       87 
     100        5       86       88 
     101        8       86       98 
     102        8       88       89 
     103        8       88       90 
     104        5       88       91 
     105        8       91       92 
     106        8       91       97 
     107        8       93       94 
     108        8       93       95 
     109        8       93       96 
     110       12      108      109 

Angles

       1        1        3        1        2 
       2        1        3        1       27 
       3        1        3        4       29 
       4        1        4        3        1 
       5        1        4        3       28 
       6        1        4        5       26 
       7        1        5        4        3 
       8        1        5        4       29 
       9        1        5       26       27 
      10        1        6        5        4 
      11        1        6        5       26 
      12        1        6        8       25 
      13        2        6       66       64 
      14        2        7        6        5 
      15        2        7        6       66 
      16        2        8        6        5 
      17        2        8        6        7 
      18        2        8        6       66 
      19        1        8        9       10 
      20        1        8        9       30 
      21        1        8       25       24 
      22        1        8       25       54 
      23        1        9        8        6 
      24        1        9        8       25 
      25        1        9       10       11 
      26        1        9       10       31 
      27        1       12       11       10 
      28        3       13       12       11 
      29        2       14       13       12 
      30        2       15       14       13 
      31        2       16       15       14 
      32        2       17       16       15 
      33        2       18       17       16 
      34        2       19       18       17 
      35        2       20       19       18 
      36        2       21       20       19 
      37        2       22       21       20 
      38        2       23       22       21 
      39        1       24       11       10 
      40        1       24       11       12 
      41        1       25       24       11 
      42        1       26       27        1 
      43        1       27        1        2 
      44        1       28        3        1 
      45        1       30        9       10 
      46        1       31       10       11 
      47        2       32       13       12 
      48        2       32       13       14 
      49        2       33       13       12 
      50        2       33       13       14 
      51        2       33       13       32 
      52        2       34       14       13 
      53        2       34       14       15 
      54        2       35       14       13 
      55        2       35       14       15 
      56        2       35       14       34 
      57        2       36       15       14 
      58        2       36       15       16 
      59        2       37       15       14 
      60        2       37       15       16 
      61        2       37       15       36 
      62        2       38       16       15 
      63        2       38       16       17 
      64        2       39       16       15 
      65        2       39       16       17 
      66        2       39       16       38 
      67        2       40       17       16 
      68        2       40       17       18 
      69        2       41       17       16 
      70        2       41       17       18 
      71        2       41       17       40 
      72        2       42       18       17 
      73        2       42       18       19 
      74        2       43       18       17 
      75        2       43       18       19 
      76        2       43       18       42 
      77        2       44       19       18 
      78        2       44       19       20 
      79        2       45       19       18 
      80        2       45       19       20 
      81        2       45       19       44 
      82        2       46       20       19 
      83        2       46       20       21 
      84        2       47       20       19 
      85        2       47       20       21 
      86        2       47       20       46 
      87        2       48       21       20 
      88        2       48       21       22 
      89        2       49       21       20 
      90        2       49       21       22 
      91        2       49       21       48 
      92        2       50       22       21 
      93        2       50       22       23 
      94        2       51       22       21 
      95        2       51       22       23 
      96        2       51       22       50 
      97        4       52       23       22 
      98        1       53       24       11 
      99        1       53       24       25 
     100        1       54       25       24 
     101        1       55       26        5 
     102        1       55       26       27 
     103        1       56       27        1 
     104        1       56       27       26 
     105        3       57      108      109 
     106        1       58       57      107 
     107        1       58       57      108 
     108        2       58       64      106 
     109        2       60       58       57 
     110        2       62       59       61 
     111        2       63       58       57 
     112        2       63       58       60 
     113        2       64       58       57 
     114        2       64       58       60 
     115        2       64       58       63 
     116        2       65       64       58 
     117        2       65       64      106 
     118        2       66        6        5 
     119        2       66       64       58 
     120        2       66       64       65 
     121        2       66       64      106 
     122        2       66       68      104 
     123        2       66       68      105 
     124        2       67       66        6 
     125        2       67       66       64 
     126        2       68       66        6 
     127        2       68       66       64 
     128        2       68       66       67 
     129        2       68       69      103 
     130        2       69       68       66 
     131        2       69       68      104 
     132        2       69       68      105 
     133        2       70       69       68 
     134        2       70       69      103 
     135        2       71       69       68 
     136        2       71       69       70 
     137        2       71       69      103 
     138        2       71       74      102 
     139        2       72       71       69 
     140        2       73       71       69 
     141        2       73       71       72 
     142        2       74       71       69 
     143        2       74       71       72 
     144        2       74       71       73 
     145        2       75       74       71 
     146        2       75       74      102 
     147        2       76       74       71 
     148        2       76       74       75 
     149        2       76       74      102 
     150        1       77       76       74 
     151        1       78       76       74 
     152        1       78       76       77 
     153        2       78       80      100 
     154        2       78       80      101 
     155        1       79       78       76 
     156        1       80       78       76 
     157        1       80       78       79 
     158        2       81       80       78 
     159        2       81       80      100 
     160        2       81       80      101 
     161        2       82       81       80 
     162        2       83       81       80 
     163        2       83       81       82 
     164        2       84       83       81 
     165        2       85       83       81 
     166        2       85       83       84 
     167        2       86       83       81 
     168        2       86       83       84 
     169        2       86       83       85 
     170        2       87       86       83 
     171        2       88       86       83 
     172        2       88       86       87 
     173        2       88       91       59 
     174        2       89       88       86 
     175        2       90       88       86 
     176        2       90       88       89 
     177        2       91       59       61 
     178        2       91       59       62 
     179        2       91       88       86 
     180        2       91       88       89 
     181        2       91       88       90 
     182        2       92       91       59 
     183        2       92       91       88 
     184        2       93       59       61 
     185        2       93       59       62 
     186        2       93       59       91 
     187        2       94       93       59 
     188        2       95       93       59 
     189        2       95       93       94 
     190        2       96       93       59 
     191        2       96       93       94 
     192        2       96       93       95 
     193        2       97       91       59 
     194        2       97       91       88 
     195        2       97       91       92 
     196        2       98       86       83 
     197        2       98       86       87 
     198        2       98       86       88 
     199        2       99       81       80 
     200        2       99       81       82 
     201        2       99       81       83 
     202        2      101       80      100 
     203        2      105       68      104 
     204        1      108       57      107 

Dihedrals

       1        7        3        1       27       26 
       2        7        3        4        5       26 
       3        7        4        3        1        2 
       4        7        4        3        1       27 
       5        7        4        5       26       27 
       6        7        5        4        3        1 
       7        7        5        4        3       28 
       8        1        5        6        8       25 
       9        7        5       26       27        1 
      10        7        6        5        4        3 
      11        7        6        5        4       29 
      12        7        6        5       26       27 
      13        7        6        5       26       55 
      14        7        6        8        9       10 
      15        7        6        8        9       30 
      16        7        6        8       25       24 
      17        7        6        8       25       54 
      18        5        6       66       64       58 
      19        5        6       66       64       65 
      20        5        6       66       64      106 
      21        5        6       66       68      104 
      22        5        6       66       68      105 
      23        1        7        6        5        4 
      24        1        7        6        5       26 
      25        1        7        6        8       25 
      26        5        7        6       66       64 
      27        5        7        6       66       67 
      28        5        7        6       66       68 
      29        1        8        6        5        4 
      30        1        8        6        5       26 
      31        5        8        6       66       64 
      32        5        8        6       66       67 
      33        5        8        6       66       68 
      34        7        8        9       10       11 
      35        7        8        9       10       31 
      36        7        8       25       24       11 
      37        7        8       25       24       53 
      38        1        9        8        6        5 
      39        1        9        8        6        7 
      40        1        9        8        6       66 
      41        7        9        8       25       24 
      42        7        9        8       25       54 
      43        7        9       10       11       12 
      44        7        9       10       11       24 
      45        8       13       12       11       10 
      46        2       14       13       12       11 
      47        5       15       14       13       12 
      48        5       16       15       14       13 
      49        5       17       16       15       14 
      50        5       18       17       16       15 
      51        5       19       18       17       16 
      52        5       20       19       18       17 
      53        5       21       20       19       18 
      54        5       22       21       20       19 
      55        5       23       22       21       20 
      56        8       24       11       12       13 
      57        7       25        8        9       10 
      58        7       25       24       11       10 
      59        7       25       24       11       12 
      60        7       26       27        1        2 
      61        7       28        3        1        2 
      62        7       28        3        1       27 
      63        7       29        4        3        1 
      64        7       29        4        3       28 
      65        7       29        4        5       26 
      66        7       30        9        8       25 
      67        7       30        9       10       11 
      68        7       31       10        9       30 
      69        7       31       10       11       12 
      70        7       31       10       11       24 
      71        2       32       13       12       11 
      72        5       32       13       14       15 
      73        2       33       13       12       11 
      74        5       33       13       14       15 
      75        5       34       14       13       12 
      76        5       34       14       13       32 
      77        5       34       14       13       33 
      78        5       34       14       15       16 
      79        5       35       14       13       12 
      80        5       35       14       13       32 
      81        5       35       14       13       33 
      82        5       35       14       15       16 
      83        5       36       15       14       13 
      84        5       36       15       14       34 
      85        5       36       15       14       35 
      86        5       36       15       16       17 
      87        5       37       15       14       13 
      88        5       37       15       14       34 
      89        5       37       15       14       35 
      90        5       37       15       16       17 
      91        5       38       16       15       14 