LAMMPS (8 Feb 2023)
OMP_NUM_THREADS environment is not set. Defaulting to 1 thread. (src/comm.cpp:98)
  using 1 OpenMP thread(s) per MPI task
# define variables

variable       spacing index 10.0
variable       lbox index 20.0
variable       sname string simplified_mc
variable       rtemp index 300


#package omp 4

units           real
atom_style      full
boundary        p p p
#pair_style      lj/cut/coul/long  14
pair_style      lj/charmm/coul/long/opt 13 14.00000
#pair_modify     mix arithmetic tail yes
#special_bonds   lj/coul 0.0 0.0 1.0
kspace_style    ewald 0.0001
bond_style      harmonic
angle_style     harmonic
dihedral_style  harmonic
improper_style  umbrella
#kspace_style    pppm 0.0001

# initialize a simple cumbic box for the initial structure

lattice        sc ${spacing}
lattice        sc 10.0
Lattice spacing in x,y,z = 10 10 10
region         mybox block 0 ${lbox} 0 ${lbox} 0 ${lbox} units box
region         mybox block 0 20.0 0 ${lbox} 0 ${lbox} units box
region         mybox block 0 20.0 0 20.0 0 ${lbox} units box
region         mybox block 0 20.0 0 20.0 0 20.0 units box
create_box     8 mybox                bond/types 13                angle/types 5                dihedral/types 11                improper/types 1                extra/bond/per/atom 13                extra/angle/per/atom 10                extra/dihedral/per/atom 20                extra/improper/per/atom 20                extra/special/per/atom 100
Created orthogonal box = (0 0 0) to (20 20 20)
  1 by 1 by 1 MPI processor grid

molecule       69 xlig.lammps.txt
Read molecule template 69:
  1 molecules
  0 fragments
  68 atoms with max type 7
  70 bonds with max type 10
  128 angles with max type 4
  188 dihedrals with max type 11
  39 impropers with max type 1
molecule       420 oleic.lammps.txt
Read molecule template 420:
  1 molecules
  0 fragments
  54 atoms with max type 6
  53 bonds with max type 13
  100 angles with max type 5
  141 dihedrals with max type 9
  9 impropers with max type 1


pair_modify          mix geometric
#neighbor             2.0 multi
#neigh_modify         every 2 delay 4 check yes
thermo_style         multi
thermo_modify        line multi format float %14.6f flush yes



# originally used box instead of single, which takes no args and auto populates the box until full
create_atoms   0 single 10 10 10   mol 69 42 units box
Created 68 atoms
  using box units in orthogonal box = (0 0 0) to (20 20 20)
  create_atoms CPU = 0.001 seconds
create_atoms   0 single 0 0 0  mol 420 42 units box
Created 54 atoms
  using box units in orthogonal box = (0 0 0) to (20 20 20)
  create_atoms CPU = 0.000 seconds


group xligand molecule == 69
0 atoms in group xligand
#group xligand id 1:68
#group xligand include molecule

group oleic_acid molecule == 420
0 atoms in group oleic_acid
#group oleic_acid id 69:122
#group oleic_acid include molecule



# coeffs
# Masses

mass    1 1.2011E+01 # C_3
mass    2 1.4007E+01 # N_3
mass    3 1.2011E+01 # C_R
mass    4 1.5999E+01 # O_2
mass    5 3.2060E+01 # S_3
mass    6 1.0080E+00 # H_
mass    7 1.0080E+00 # H___A
mass    8 1.5999E+01 # O_R


pair_coeff           1 1 0.09510000 3.47299041 # C_3 C_3
pair_coeff           2 2 0.07740000 3.26256026 # N_3 N_3
pair_coeff           3 3 0.09510000 3.47299041 # C_R C_R
pair_coeff           4 4 0.09570000 3.03315369 # O_2 O_2
pair_coeff           5 5 0.34400001 3.59032202 # S_3 S_3
pair_coeff           6 6 0.01520000 2.84642134 # H_ H_
pair_coeff           7 7 0.01520000 2.84642134 # H___A H___A
pair_coeff           8 8 0.09570000 3.03315369 # O_R O_R


pair_modify          mix geometric
neighbor             2.0 multi
neigh_modify         every 2 delay 4 check yes
thermo_style         multi
WARNING: New thermo_style command, previous thermo_modify settings will be lost (src/output.cpp:896)
thermo_modify        line multi format float %14.6f flush yes

bond_coeff           1 350 1.53000 # C_3 C_3
bond_coeff           2 350 1.09000 # C_3 H_
bond_coeff           3 350 1.46200 # N_3 C_3
bond_coeff           4 350 1.39200 # N_3 C_R
bond_coeff           5 525 1.39000 # C_R C_R
bond_coeff           6 350 1.02000 # C_R H_
bond_coeff           7 700 1.25000 # O_2 C_R
bond_coeff           8 350 1.73000 # S_3 C_R
bond_coeff           9 350 1.80000 # S_3 C_3
bond_coeff           10 350 1.36000 # S_3 H___A
bond_coeff           11 525 1.35000 # O_R C_R
bond_coeff           12 350 0.98000 # O_R H___A
bond_coeff           13 350 1.46000 # C_R C_3


angle_coeff          1 50 109.47100 # X C_3 X
angle_coeff          2 50 106.70000 # X N_3 X
angle_coeff          3 50 120 # X C_R X
angle_coeff          4 50 92.10000 # X S_3 X
angle_coeff          5 50 120 # X O_R X


dihedral_coeff       1 0.08333 -1 6 # C_R C_R C_3 X
dihedral_coeff       2 0.08333 -1 6 # O_2 C_R C_3 X
dihedral_coeff       3 0.08333 -1 6 # O_R C_R C_3 X
dihedral_coeff       4 0.11111 1 3 # X C_3 C_3 X
dihedral_coeff       5 0.16667 1 3 # X C_R C_3 X
dihedral_coeff       6 3.12500 -1 2 # X C_R C_R X
dihedral_coeff       7 0.16667 1 3 # X N_3 C_3 X
dihedral_coeff       8 0.12500 -1 6 # X N_3 C_R C_R
dihedral_coeff       9 6.25000 -1 2 # X O_R C_R X
dihedral_coeff       10 0.33333 1 3 # X S_3 C_3 X
dihedral_coeff       11 0.50000 -1 2 # X S_3 C_R X

improper_coeff       1 13.33333 0 # C_R X X X

timestep             0.5

print                .
.
print                ==========================================
==========================================
print                "500 steps CG Minimization"
500 steps CG Minimization
print                ==========================================
==========================================
print                .
.

dump                 1 all custom 25 ${sname}.min.lammpstrj id type xu yu zu vx vy vz
dump                 1 all custom 25 simplified_mc.min.lammpstrj id type xu yu zu vx vy vz
thermo               10
min_style            cg
minimize             1.0e-4 1.0e-4 500 5000

CITE-CITE-CITE-CITE-CITE-CITE-CITE-CITE-CITE-CITE-CITE-CITE-CITE

Your simulation uses code contributions which should be cited:

- neighbor multi command: doi:10.1016/j.cpc.2008.03.005, doi:10.1007/s40571-020-00361-2

@Article{Intveld08,
 author =  {in 't Veld, P. J. and S. J.~Plimpton and G. S. Grest},
 title =   {Accurate and Efficient Methods for Modeling Colloidal
            Mixtures in an Explicit Solvent using Molecular Dynamics},
 journal = {Comput.\ Phys.\ Commut.},
 year =    2008,
 volume =  179,
 pages =   {320--329}
}

@article{Shire2020,
 author = {Shire, Tom and Hanley, Kevin J. and Stratford, Kevin},
 title = {{DEM} Simulations of Polydisperse Media: Efficient Contact
          Detection Applied to Investigate the Quasi-Static Limit},
 journal = {Computational Particle Mechanics},
 year = {2020}
}

CITE-CITE-CITE-CITE-CITE-CITE-CITE-CITE-CITE-CITE-CITE-CITE-CITE

Switching to 'neigh_modify every 1 delay 0 check yes' setting during minimization
Ewald initialization ...
WARNING: System is not charge neutral, net charge = -0.0006 (src/kspace.cpp:327)
  using 12-bit tables for long-range coulomb (src/kspace.cpp:342)
  G vector (1/distance) = 0.091315817
  estimated absolute RMS force accuracy = 0.034067589
  estimated relative force accuracy = 0.00010259353
  KSpace vectors: actual max1d max3d = 3 1 13
                  kxmax kymax kzmax  = 1 1 1
Generated 28 of 28 mixed pair_coeff terms from geometric mixing rule
Neighbor list info ...
  update: every = 1 steps, delay = 0 steps, check = yes
  max neighbors/atom: 2000, page size: 100000
  master list distance cutoff = 16
  ghost atom cutoff = 16
  binsize = 8, bins = 3 3 3
  1 neighbor lists, perpetual/occasional/extra = 1 0 0
  (1) pair lj/charmm/coul/long/opt, perpetual
      attributes: half, newton on
      pair build: half/multi/newton
      stencil: half/multi/3d
      bin: multi
Per MPI rank memory allocation (min/avg/max) = 34.05 | 34.05 | 34.05 Mbytes
------------ Step              0 ----- CPU =            0 (sec) -------------
TotEng   =   47702.739403 KinEng   =       0.000000 Temp     =       0.000000 
PotEng   =   47702.739403 E_bond   =     110.088059 E_angle  =      36.601372 
E_dihed  =      19.805602 E_impro  =       3.329327 E_vdwl   =   47534.568145 
E_coul   =      14.541173 E_long   =     -16.194275 Press    = 1638353.761727
------------ Step             10 ----- CPU =   0.00445219 (sec) -------------
TotEng   =     596.328787 KinEng   =       0.000000 Temp     =       0.000000 
PotEng   =     596.328787 E_bond   =      29.092585 E_angle  =     169.458814 
E_dihed  =      21.557488 E_impro  =       0.960121 E_vdwl   =     377.158172 
E_coul   =      14.292449 E_long   =     -16.190841 Press    =   19067.998260
------------ Step             20 ----- CPU =   0.01095968 (sec) -------------
TotEng   =     249.850599 KinEng   =       0.000000 Temp     =       0.000000 
PotEng   =     249.850599 E_bond   =      35.496544 E_angle  =     124.677896 
E_dihed  =      28.321853 E_impro  =       0.443008 E_vdwl   =      63.072505 
E_coul   =      14.029424 E_long   =     -16.190631 Press    =    2722.572857
------------ Step             30 ----- CPU =   0.01815284 (sec) -------------
TotEng   =     225.972273 KinEng   =       0.000000 Temp     =       0.000000 
PotEng   =     225.972273 E_bond   =      39.618210 E_angle  =     129.254209 
E_dihed  =      30.451618 E_impro  =       0.382901 E_vdwl   =      28.391768 
E_coul   =      14.064877 E_long   =     -16.191311 Press    =     305.603343
------------ Step             40 ----- CPU =   0.02509575 (sec) -------------
TotEng   =     219.786672 KinEng   =       0.000000 Temp     =       0.000000 
PotEng   =     219.786672 E_bond   =      34.484094 E_angle  =     129.084093 
E_dihed  =      30.985085 E_impro  =       0.487246 E_vdwl   =      26.817438 
E_coul   =      14.121248 E_long   =     -16.192534 Press    =     307.202091
------------ Step             50 ----- CPU =   0.03221407 (sec) -------------
TotEng   =     215.723883 KinEng   =       0.000000 Temp     =       0.000000 
PotEng   =     215.723883 E_bond   =      33.890767 E_angle  =     124.123501 
E_dihed  =      31.058740 E_impro  =       0.646177 E_vdwl   =      28.070354 
E_coul   =      14.128338 E_long   =     -16.193995 Press    =     378.696982
------------ Step             60 ----- CPU =   0.04016636 (sec) -------------
TotEng   =     211.069248 KinEng   =       0.000000 Temp     =       0.000000 
PotEng   =     211.069248 E_bond   =      32.989417 E_angle  =     125.700686 
E_dihed  =      31.930270 E_impro  =       0.637513 E_vdwl   =      22.013072 
E_coul   =      13.993409 E_long   =     -16.195120 Press    =      -4.340969
------------ Step             70 ----- CPU =   0.04716306 (sec) -------------
TotEng   =     208.852078 KinEng   =       0.000000 Temp     =       0.000000 
PotEng   =     208.852078 E_bond   =      31.731766 E_angle  =     125.592842 
E_dihed  =      32.788984 E_impro  =       0.501010 E_vdwl   =      20.700952 
E_coul   =      13.731832 E_long   =     -16.195308 Press    =     -19.031962
------------ Step             80 ----- CPU =   0.05431535 (sec) -------------
TotEng   =     207.619682 KinEng   =       0.000000 Temp     =       0.000000 
PotEng   =     207.619682 E_bond   =      30.797855 E_angle  =     124.635052 
E_dihed  =      32.280441 E_impro  =       0.410012 E_vdwl   =      21.931183 
E_coul   =      13.760014 E_long   =     -16.194875 Press    =      17.143243
------------ Step             90 ----- CPU =   0.06124997 (sec) -------------
TotEng   =     205.989502 KinEng   =       0.000000 Temp     =       0.000000 
PotEng   =     205.989502 E_bond   =      31.262144 E_angle  =     123.459366 
E_dihed  =      31.357782 E_impro  =       0.513904 E_vdwl   =      21.977937 
E_coul   =      13.612277 E_long   =     -16.193908 Press    =    -182.860197
------------ Step             95 ----- CPU =   0.08326466 (sec) -------------
TotEng   =     205.345434 KinEng   =       0.000000 Temp     =       0.000000 
PotEng   =     205.345434 E_bond   =      31.256940 E_angle  =     124.109575 
E_dihed  =      30.968575 E_impro  =       0.522200 E_vdwl   =      21.072483 
E_coul   =      13.609042 E_long   =     -16.193379 Press    =    -268.491226
Loop time of 0.0833303 on 1 procs for 95 steps with 122 atoms

99.0% CPU use with 1 MPI tasks x 1 OpenMP threads

Minimization stats:
  Stopping criterion = linesearch alpha is zero
  Energy initial, next-to-last, final = 
      47702.7394031284   205.345434110941   205.345434110941
  Force two-norm initial, final = 806464.22 17.295112
  Force max component initial, final = 496010.82 3.8946361
  Final line search alpha, max atom move = 3.9542969e-11 1.5400547e-10
  Iterations, force evaluations = 95 232

MPI task timing breakdown:
Section |  min time  |  avg time  |  max time  |%varavg| %total
---------------------------------------------------------------
Pair    | 0.067112   | 0.067112   | 0.067112   |   0.0 | 80.54
Bond    | 0.0078113  | 0.0078113  | 0.0078113  |   0.0 |  9.37
Kspace  | 0.003185   | 0.003185   | 0.003185   |   0.0 |  3.82
Neigh   | 0.0016994  | 0.0016994  | 0.0016994  |   0.0 |  2.04
Comm    | 0.0014676  | 0.0014676  | 0.0014676  |   0.0 |  1.76
Output  | 0.0011793  | 0.0011793  | 0.0011793  |   0.0 |  1.42
Modify  | 0          | 0          | 0          |   0.0 |  0.00
Other   |            | 0.0008763  |            |       |  1.05

Nlocal:            122 ave         122 max         122 min
Histogram: 1 0 0 0 0 0 0 0 0 0
Nghost:           1778 ave        1778 max        1778 min
Histogram: 1 0 0 0 0 0 0 0 0 0
Neighs:          14789 ave       14789 max       14789 min
Histogram: 1 0 0 0 0 0 0 0 0 0

Total # of neighbors = 14789
Ave neighs/atom = 121.22131
Ave special neighs/atom = 10.967213
Neighbor list builds = 2
Dangerous builds = 0
min_style            sd
minimize             1.0e-4 1.0e-4 500 5000
Switching to 'neigh_modify every 1 delay 0 check yes' setting during minimization
Ewald initialization ...
  using 12-bit tables for long-range coulomb (src/kspace.cpp:342)
  G vector (1/distance) = 0.091315817
  estimated absolute RMS force accuracy = 0.034067589
  estimated relative force accuracy = 0.00010259353
  KSpace vectors: actual max1d max3d = 3 1 13
                  kxmax kymax kzmax  = 1 1 1
Generated 28 of 28 mixed pair_coeff terms from geometric mixing rule
Per MPI rank memory allocation (min/avg/max) = 34.05 | 34.05 | 34.05 Mbytes
------------ Step             95 ----- CPU =            0 (sec) -------------
TotEng   =     205.345434 KinEng   =       0.000000 Temp     =       0.000000 
PotEng   =     205.345434 E_bond   =      31.256940 E_angle  =     124.109575 
E_dihed  =      30.968575 E_impro  =       0.522200 E_vdwl   =      21.072483 
E_coul   =      13.609042 E_long   =     -16.193379 Press    =    -268.491226
------------ Step            100 ----- CPU =  0.003733836 (sec) -------------
TotEng   =     205.173040 KinEng   =       0.000000 Temp     =       0.000000 
PotEng   =     205.173040 E_bond   =      31.264771 E_angle  =     123.956632 
E_dihed  =      30.955378 E_impro  =       0.531958 E_vdwl   =      21.049732 
E_coul   =      13.607982 E_long   =     -16.193413 Press    =    -244.190797
------------ Step            104 ----- CPU =  0.007104018 (sec) -------------
TotEng   =     205.076324 KinEng   =       0.000000 Temp     =       0.000000 
PotEng   =     205.076324 E_bond   =      31.237050 E_angle  =     123.939660 
E_dihed  =      30.940751 E_impro  =       0.530301 E_vdwl   =      21.027027 
E_coul   =      13.594959 E_long   =     -16.193424 Press    =    -237.321352
Loop time of 0.00711971 on 1 procs for 9 steps with 122 atoms

99.4% CPU use with 1 MPI tasks x 1 OpenMP threads

Minimization stats:
  Stopping criterion = energy tolerance
  Energy initial, next-to-last, final = 
      205.345434110941   205.096470468925   205.076324343458
  Force two-norm initial, final = 17.295112 6.4188986
  Force max component initial, final = 3.8946361 1.6463643
  Final line search alpha, max atom move = 0.026816678 0.044150021
  Iterations, force evaluations = 9 18

MPI task timing breakdown:
Section |  min time  |  avg time  |  max time  |%varavg| %total
---------------------------------------------------------------
Pair    | 0.0056293  | 0.0056293  | 0.0056293  |   0.0 | 79.07
Bond    | 0.00063935 | 0.00063935 | 0.00063935 |   0.0 |  8.98
Kspace  | 0.00025987 | 0.00025987 | 0.00025987 |   0.0 |  3.65
Neigh   | 0          | 0          | 0          |   0.0 |  0.00
Comm    | 0.00013264 | 0.00013264 | 0.00013264 |   0.0 |  1.86
Output  | 0.00021019 | 0.00021019 | 0.00021019 |   0.0 |  2.95
Modify  | 0          | 0          | 0          |   0.0 |  0.00
Other   |            | 0.0002484  |            |       |  3.49

Nlocal:            122 ave         122 max         122 min
Histogram: 1 0 0 0 0 0 0 0 0 0
Nghost:           1772 ave        1772 max        1772 min
Histogram: 1 0 0 0 0 0 0 0 0 0
Neighs:          14833 ave       14833 max       14833 min
Histogram: 1 0 0 0 0 0 0 0 0 0

Total # of neighbors = 14833
Ave neighs/atom = 121.58197
Ave special neighs/atom = 10.967213
Neighbor list builds = 0
Dangerous builds = 0
#now                 minimize the entire system
minimize             1.0e-4 1.0e-4 500 5000
Switching to 'neigh_modify every 1 delay 0 check yes' setting during minimization
Ewald initialization ...
  using 12-bit tables for long-range coulomb (src/kspace.cpp:342)
  G vector (1/distance) = 0.091315817
  estimated absolute RMS force accuracy = 0.034067589
  estimated relative force accuracy = 0.00010259353
  KSpace vectors: actual max1d max3d = 3 1 13
                  kxmax kymax kzmax  = 1 1 1
Generated 28 of 28 mixed pair_coeff terms from geometric mixing rule
Per MPI rank memory allocation (min/avg/max) = 34.05 | 34.05 | 34.05 Mbytes
------------ Step            104 ----- CPU =            0 (sec) -------------
TotEng   =     205.076324 KinEng   =       0.000000 Temp     =       0.000000 
PotEng   =     205.076324 E_bond   =      31.237050 E_angle  =     123.939660 
E_dihed  =      30.940751 E_impro  =       0.530301 E_vdwl   =      21.027027 
E_coul   =      13.594959 E_long   =     -16.193424 Press    =    -237.321352
------------ Step            105 ----- CPU =  0.001271937 (sec) -------------
TotEng   =     205.056190 KinEng   =       0.000000 Temp     =       0.000000 
PotEng   =     205.056190 E_bond   =      31.246060 E_angle  =     123.917920 
E_dihed  =      30.937011 E_impro  =       0.530112 E_vdwl   =      21.023341 
E_coul   =      13.595173 E_long   =     -16.193426 Press    =    -233.838700
Loop time of 0.00128532 on 1 procs for 1 steps with 122 atoms

99.5% CPU use with 1 MPI tasks x 1 OpenMP threads

Minimization stats:
  Stopping criterion = energy tolerance
  Energy initial, next-to-last, final = 
      205.076324343458   205.076324343458   205.056190121107
  Force two-norm initial, final = 6.4188986 10.477346
  Force max component initial, final = 1.6463643 3.789046
  Final line search alpha, max atom move = 0.060739898 0.23014627
  Iterations, force evaluations = 1 2

MPI task timing breakdown:
Section |  min time  |  avg time  |  max time  |%varavg| %total
---------------------------------------------------------------
Pair    | 0.00090499 | 0.00090499 | 0.00090499 |   0.0 | 70.41
Bond    | 0.0001112  | 0.0001112  | 0.0001112  |   0.0 |  8.65
Kspace  | 4.1898e-05 | 4.1898e-05 | 4.1898e-05 |   0.0 |  3.26
Neigh   | 0          | 0          | 0          |   0.0 |  0.00
Comm    | 1.8395e-05 | 1.8395e-05 | 1.8395e-05 |   0.0 |  1.43
Output  | 0          | 0          | 0          |   0.0 |  0.00
Modify  | 0          | 0          | 0          |   0.0 |  0.00
Other   |            | 0.0002088  |            |       | 16.25

Nlocal:            122 ave         122 max         122 min
Histogram: 1 0 0 0 0 0 0 0 0 0
Nghost:           1772 ave        1772 max        1772 min
Histogram: 1 0 0 0 0 0 0 0 0 0
Neighs:          14835 ave       14835 max       14835 min
Histogram: 1 0 0 0 0 0 0 0 0 0

Total # of neighbors = 14835
Ave neighs/atom = 121.59836
Ave special neighs/atom = 10.967213
Neighbor list builds = 0
Dangerous builds = 0
undump               1

print                .
.
print                =====================================
=====================================
print                "NVT dynamics to heat system"
NVT dynamics to heat system
print                =====================================
=====================================
print                .
.

reset_timestep       0
##fix                  shakeH all shake 0.0001 20 500 m 1.0079
velocity             all create 0.0 12345678 dist uniform
thermo               100
dump                 1 all custom 1000 ${sname}.heat.lammpstrj id type xu yu zu vx vy vz
dump                 1 all custom 1000 simplified_mc.heat.lammpstrj id type xu yu zu vx vy vz
fix                  4 all nvt temp 1.0 300.0 100.0
run                  10000
Ewald initialization ...
  using 12-bit tables for long-range coulomb (src/kspace.cpp:342)
  G vector (1/distance) = 0.091315817
  estimated absolute RMS force accuracy = 0.034067589
  estimated relative force accuracy = 0.00010259353
  KSpace vectors: actual max1d max3d = 3 1 13
                  kxmax kymax kzmax  = 1 1 1
Generated 28 of 28 mixed pair_coeff terms from geometric mixing rule
Per MPI rank memory allocation (min/avg/max) = 32.92 | 32.92 | 32.92 Mbytes
------------ Step              0 ----- CPU =            0 (sec) -------------
TotEng   =     205.056190 KinEng   =       0.000000 Temp     =       0.000000 
PotEng   =     205.056190 E_bond   =      31.246060 E_angle  =     123.917920 
E_dihed  =      30.937011 E_impro  =       0.530112 E_vdwl   =      21.023341 
E_coul   =      13.595173 E_long   =     -16.193426 Press    =    -233.838700
------------ Step            100 ----- CPU =   0.02516393 (sec) -------------
TotEng   =     205.217066 KinEng   =       0.839134 Temp     =       2.326546 
PotEng   =     204.377932 E_bond   =      31.040304 E_angle  =     123.553050 
E_dihed  =      30.372280 E_impro  =       0.499438 E_vdwl   =      21.402784 
E_coul   =      13.703515 E_long   =     -16.193439 Press    =    -123.389257
------------ Step            200 ----- CPU =   0.05011224 (sec) -------------
TotEng   =     205.420164 KinEng   =       2.072195 Temp     =       5.745275 
PotEng   =     203.347969 E_bond   =      30.915965 E_angle  =     123.927007 
E_dihed  =      29.549693 E_impro  =       0.477456 E_vdwl   =      20.997836 
E_coul   =      13.672686 E_long   =     -16.192673 Press    =      -6.572282
------------ Step            300 ----- CPU =   0.07486156 (sec) -------------
TotEng   =     205.599440 KinEng   =       3.801582 Temp     =      10.540100 
PotEng   =     201.797858 E_bond   =      31.409340 E_angle  =     124.550529 
E_dihed  =      27.118543 E_impro  =       0.458474 E_vdwl   =      20.898966 
E_coul   =      13.554382 E_long   =     -16.192376 Press    =     -81.615393
------------ Step            400 ----- CPU =     0.100458 (sec) -------------
TotEng   =     205.897009 KinEng   =       5.251535 Temp     =      14.560175 
PotEng   =     200.645474 E_bond   =      31.552738 E_angle  =     125.770613 
E_dihed  =      25.261143 E_impro  =       0.457457 E_vdwl   =      20.276150 
E_coul   =      13.519120 E_long   =     -16.191747 Press    =     -63.945480
------------ Step            500 ----- CPU =    0.1250054 (sec) -------------
TotEng   =     206.205125 KinEng   =       5.430092 Temp     =      15.055235 
PotEng   =     200.775033 E_bond   =      31.353474 E_angle  =     127.570437 
E_dihed  =      24.706981 E_impro  =       0.454656 E_vdwl   =      19.219631 
E_coul   =      13.661507 E_long   =     -16.191653 Press    =     -31.216025
------------ Step            600 ----- CPU =    0.1503249 (sec) -------------
TotEng   =     206.478690 KinEng   =       5.440339 Temp     =      15.083645 
PotEng   =     201.038350 E_bond   =      31.521790 E_angle  =     127.727925 
E_dihed  =      25.750486 E_impro  =       0.510830 E_vdwl   =      18.120446 
E_coul   =      13.598862 E_long   =     -16.191988 Press    =    -196.757547
------------ Step            700 ----- CPU =    0.1745955 (sec) -------------
TotEng   =     207.140252 KinEng   =       6.848386 Temp     =      18.987535 
PotEng   =     200.291866 E_bond   =      31.432076 E_angle  =     127.323474 
E_dihed  =      26.892531 E_impro  =       0.601575 E_vdwl   =      16.754180 
E_coul   =      13.480035 E_long   =     -16.192005 Press    =    -343.118250
------------ Step            800 ----- CPU =    0.2001399 (sec) -------------
TotEng   =     208.055582 KinEng   =       9.572613 Temp     =      26.540607 
PotEng   =     198.482969 E_bond   =      31.581567 E_angle  =     128.440219 
E_dihed  =      25.293397 E_impro  =       0.673467 E_vdwl   =      15.229656 
E_coul   =      13.457684 E_long   =     -16.193021 Press    =    -318.694678
------------ Step            900 ----- CPU =    0.2255439 (sec) -------------
TotEng   =     208.493541 KinEng   =       9.192018 Temp     =      25.485386 
PotEng   =     199.301523 E_bond   =      31.639035 E_angle  =     129.125764 
E_dihed  =      25.136268 E_impro  =       0.867212 E_vdwl   =      15.419783 
E_coul   =      13.307961 E_long   =     -16.194501 Press    =    -154.313150
------------ Step           1000 ----- CPU =    0.2503978 (sec) -------------
TotEng   =     209.377482 KinEng   =       8.952193 Temp     =      24.820455 
PotEng   =     200.425289 E_bond   =      30.638719 E_angle  =     129.291199 
E_dihed  =      26.763731 E_impro  =       0.748886 E_vdwl   =      15.777081 
E_coul   =      13.401429 E_long   =     -16.195757 Press    =     -71.030396
------------ Step           1100 ----- CPU =    0.2757749 (sec) -------------
TotEng   =     210.821456 KinEng   =       9.899409 Temp     =      27.446666 
PotEng   =     200.922047 E_bond   =      29.915156 E_angle  =     129.727113 
E_dihed  =      28.267807 E_impro  =       0.613307 E_vdwl   =      14.941716 
E_coul   =      13.653469 E_long   =     -16.196520 Press    =     -34.718990
------------ Step           1200 ----- CPU =    0.2999255 (sec) -------------
TotEng   =     211.969366 KinEng   =      10.820709 Temp     =      30.001023 
PotEng   =     201.148657 E_bond   =      29.975830 E_angle  =     130.195470 
E_dihed  =      28.850525 E_impro  =       0.647796 E_vdwl   =      14.131850 
E_coul   =      13.543986 E_long   =     -16.196802 Press    =     -80.369895
------------ Step           1300 ----- CPU =    0.3253144 (sec) -------------
TotEng   =     213.753708 KinEng   =      11.249657 Temp     =      31.190303 
PotEng   =     202.504051 E_bond   =      29.848711 E_angle  =     130.544249 
E_dihed  =      30.101996 E_impro  =       0.594749 E_vdwl   =      13.820392 
E_coul   =      13.791145 E_long   =     -16.197190 Press    =     -81.681823
------------ Step           1400 ----- CPU =    0.3505119 (sec) -------------
TotEng   =     215.473725 KinEng   =      12.903355 Temp     =      35.775274 
PotEng   =     202.570370 E_bond   =      29.268368 E_angle  =     129.928411 
E_dihed  =      31.087967 E_impro  =       0.511283 E_vdwl   =      14.224195 
E_coul   =      13.747898 E_long   =     -16.197752 Press    =      96.955629
------------ Step           1500 ----- CPU =    0.3757937 (sec) -------------
TotEng   =     217.246837 KinEng   =      15.197625 Temp     =      42.136265 
PotEng   =     202.049213 E_bond   =      29.660744 E_angle  =     129.919032 
E_dihed  =      31.404497 E_impro  =       0.553546 E_vdwl   =      13.010247 
E_coul   =      13.699526 E_long   =     -16.198379 Press    =      33.873492
------------ Step           1600 ----- CPU =    0.4003005 (sec) -------------
TotEng   =     218.764897 KinEng   =      18.669748 Temp     =      51.762922 
PotEng   =     200.095149 E_bond   =      29.983984 E_angle  =     130.417107 
E_dihed  =      30.235098 E_impro  =       0.539379 E_vdwl   =      11.754665 
E_coul   =      13.364123 E_long   =     -16.199207 Press    =     -98.553716
------------ Step           1700 ----- CPU =    0.4256311 (sec) -------------
TotEng   =     220.152105 KinEng   =      19.156643 Temp     =      53.112867 
PotEng   =     200.995461 E_bond   =      30.242512 E_angle  =     129.758780 
E_dihed  =      28.874897 E_impro  =       0.429604 E_vdwl   =      14.473357 
E_coul   =      13.416067 E_long   =     -16.199756 Press    =     -16.377345
------------ Step           1800 ----- CPU =    0.4508605 (sec) -------------
TotEng   =     221.124101 KinEng   =      20.002019 Temp     =      55.456717 
PotEng   =     201.122082 E_bond   =      29.236499 E_angle  =     132.892368 
E_dihed  =      25.414684 E_impro  =       0.386505 E_vdwl   =      15.978631 
E_coul   =      13.413727 E_long   =     -16.200332 Press    =     278.578596
------------ Step           1900 ----- CPU =    0.4762511 (sec) -------------
TotEng   =     222.233439 KinEng   =      17.110541 Temp     =      47.439933 
PotEng   =     205.122898 E_bond   =      30.567861 E_angle  =     141.834821 
E_dihed  =      24.487172 E_impro  =       0.519889 E_vdwl   =      10.589727 
E_coul   =      13.321706 E_long   =     -16.198277 Press    =     -59.014446
------------ Step           2000 ----- CPU =    0.5019603 (sec) -------------
TotEng   =     224.763375 KinEng   =      18.519960 Temp     =      51.347628 
PotEng   =     206.243415 E_bond   =      31.287847 E_angle  =     141.858708 
E_dihed  =      27.201036 E_impro  =       0.626523 E_vdwl   =       7.804167 
E_coul   =      13.659491 E_long   =     -16.194358 Press    =    -336.968331
------------ Step           2100 ----- CPU =    0.5274704 (sec) -------------
TotEng   =     227.109496 KinEng   =      25.821163 Temp     =      71.590622 
PotEng   =     201.288332 E_bond   =      30.810476 E_angle  =     137.787852 
E_dihed  =      26.574854 E_impro  =       0.751062 E_vdwl   =       7.792179 
E_coul   =      13.760440 E_long   =     -16.188531 Press    =    -499.090117
------------ Step           2200 ----- CPU =     0.552988 (sec) -------------
TotEng   =     228.122299 KinEng   =      23.876142 Temp     =      66.197941 
PotEng   =     204.246157 E_bond   =      30.780238 E_angle  =     139.216382 
E_dihed  =      22.645584 E_impro  =       1.031913 E_vdwl   =      13.056597 
E_coul   =      13.704802 E_long   =     -16.189358 Press    =     -85.377067
------------ Step           2300 ----- CPU =     0.578318 (sec) -------------
TotEng   =     228.966132 KinEng   =      24.336769 Temp     =      67.475054 
PotEng   =     204.629363 E_bond   =      30.295521 E_angle  =     134.511188 
E_dihed  =      30.662938 E_impro  =       0.876927 E_vdwl   =      10.628329 
E_coul   =      13.842704 E_long   =     -16.188244 Press    =    -312.031700
------------ Step           2400 ----- CPU =     0.603875 (sec) -------------
TotEng   =     229.768023 KinEng   =      26.151246 Temp     =      72.505795 
PotEng   =     203.616776 E_bond   =      29.417183 E_angle  =     137.628087 
E_dihed  =      31.065563 E_impro  =       1.138962 E_vdwl   =       6.954846 
E_coul   =      13.601643 E_long   =     -16.189508 Press    =     -64.794821
------------ Step           2500 ----- CPU =    0.6295091 (sec) -------------
TotEng   =     230.778072 KinEng   =      25.398525 Temp     =      70.418834 
PotEng   =     205.379546 E_bond   =      28.756058 E_angle  =     141.080137 
E_dihed  =      30.346409 E_impro  =       0.994152 E_vdwl   =       6.738249 
E_coul   =      13.655324 E_long   =     -16.190783 Press    =     -71.898887
------------ Step           2600 ----- CPU =    0.6550465 (sec) -------------
TotEng   =     231.840414 KinEng   =      28.955090 Temp     =      80.279608 
PotEng   =     202.885325 E_bond   =      27.151241 E_angle  =     138.379667 
E_dihed  =      34.422512 E_impro  =       0.952113 E_vdwl   =       5.099865 
E_coul   =      13.070702 E_long   =     -16.190776 Press    =     162.714813
------------ Step           2700 ----- CPU =    0.6799553 (sec) -------------
TotEng   =     233.660191 KinEng   =      30.555523 Temp     =      84.716899 
PotEng   =     203.104668 E_bond   =      26.648830 E_angle  =     136.042583 
E_dihed  =      36.262962 E_impro  =       1.049351 E_vdwl   =       5.751471 
E_coul   =      13.540325 E_long   =     -16.190854 Press    =    -119.863068
------------ Step           2800 ----- CPU =    0.7059276 (sec) -------------
TotEng   =     234.666974 KinEng   =      30.488112 Temp     =      84.529999 
PotEng   =     204.178862 E_bond   =      25.921105 E_angle  =     138.529820 
E_dihed  =      34.310584 E_impro  =       1.287632 E_vdwl   =       6.787986 
E_coul   =      13.531276 E_long   =     -16.189542 Press    =      28.440175
------------ Step           2900 ----- CPU =    0.7320208 (sec) -------------
TotEng   =     235.360768 KinEng   =      31.289949 Temp     =      86.753137 
PotEng   =     204.070819 E_bond   =      26.273910 E_angle  =     140.391543 
E_dihed  =      32.313298 E_impro  =       0.683903 E_vdwl   =       6.972550 
E_coul   =      13.622215 E_long   =     -16.186600 Press    =      63.249115
------------ Step           3000 ----- CPU =    0.7585023 (sec) -------------
TotEng   =     236.417851 KinEng   =      33.929267 Temp     =      94.070793 
PotEng   =     202.488583 E_bond   =      28.940511 E_angle  =     136.566417 
E_dihed  =      35.502765 E_impro  =       0.668383 E_vdwl   =       3.334145 
E_coul   =      13.665332 E_long   =     -16.188970 Press    =    -443.689843
------------ Step           3100 ----- CPU =    0.7846193 (sec) -------------
TotEng   =     237.128899 KinEng   =      35.878531 Temp     =      99.475236 
PotEng   =     201.250369 E_bond   =      29.610937 E_angle  =     139.646261 
E_dihed  =      29.710517 E_impro  =       0.712153 E_vdwl   =       3.797077 
E_coul   =      13.961487 E_long   =     -16.188063 Press    =    -851.723874
------------ Step           3200 ----- CPU =     0.809504 (sec) -------------
TotEng   =     236.994302 KinEng   =      36.203507 Temp     =     100.376251 
PotEng   =     200.790795 E_bond   =      28.957515 E_angle  =     132.774914 
E_dihed  =      27.651254 E_impro  =       0.676853 E_vdwl   =      13.240927 
E_coul   =      13.677703 E_long   =     -16.188372 Press    =    -100.888034
------------ Step           3300 ----- CPU =    0.8353671 (sec) -------------
TotEng   =     236.403432 KinEng   =      34.832640 Temp     =      96.575445 
PotEng   =     201.570792 E_bond   =      30.033076 E_angle  =     133.412984 
E_dihed  =      33.609107 E_impro  =       0.513981 E_vdwl   =       6.779919 
E_coul   =      13.412840 E_long   =     -16.191115 Press    =     -24.220712
------------ Step           3400 ----- CPU =    0.8617569 (sec) -------------
TotEng   =     235.530842 KinEng   =      41.019038 Temp     =     113.727580 
PotEng   =     194.511804 E_bond   =      28.245867 E_angle  =     131.485123 
E_dihed  =      32.235418 E_impro  =       0.362999 E_vdwl   =       4.736603 
E_coul   =      13.637476 E_long   =     -16.191684 Press    =     -85.376429
------------ Step           3500 ----- CPU =    0.8865958 (sec) -------------
TotEng   =     232.775049 KinEng   =      35.757205 Temp     =      99.138854 
PotEng   =     197.017844 E_bond   =      28.487913 E_angle  =     128.541657 
E_dihed  =      32.843684 E_impro  =       1.030843 E_vdwl   =       8.509007 
E_coul   =      13.797231 E_long   =     -16.192492 Press    =    -306.706548
------------ Step           3600 ----- CPU =    0.9124231 (sec) -------------
TotEng   =     230.641208 KinEng   =      34.485931 Temp     =      95.614174 
PotEng   =     196.155277 E_bond   =      25.731765 E_angle  =     129.366117 
E_dihed  =      35.708052 E_impro  =       0.565410 E_vdwl   =       7.487543 
E_coul   =      13.489486 E_long   =     -16.193096 Press    =     297.669602
------------ Step           3700 ----- CPU =    0.9379915 (sec) -------------
TotEng   =     230.371933 KinEng   =      36.313055 Temp     =     100.679979 
PotEng   =     194.058878 E_bond   =      26.861923 E_angle  =     131.009818 
E_dihed  =      34.632741 E_impro  =       0.537101 E_vdwl   =       3.919831 
E_coul   =      13.288767 E_long   =     -16.191303 Press    =      93.045789
------------ Step           3800 ----- CPU =    0.9634946 (sec) -------------
TotEng   =     232.768319 KinEng   =      36.931936 Temp     =     102.395861 
PotEng   =     195.836384 E_bond   =      27.435150 E_angle  =     135.295750 
E_dihed  =      31.402575 E_impro  =       0.570971 E_vdwl   =       3.784523 
E_coul   =      13.538689 E_long   =     -16.191275 Press    =    -621.301427
------------ Step           3900 ----- CPU =    0.9878401 (sec) -------------
TotEng   =     236.751930 KinEng   =      39.067521 Temp     =     108.316890 
PotEng   =     197.684409 E_bond   =      25.255095 E_angle  =     132.869144 
E_dihed  =      35.426348 E_impro  =       0.743160 E_vdwl   =       6.409295 
E_coul   =      13.175162 E_long   =     -16.193796 Press    =      -7.294664
------------ Step           4000 ----- CPU =     1.013499 (sec) -------------
TotEng   =     240.052882 KinEng   =      35.385175 Temp     =      98.107379 
PotEng   =     204.667707 E_bond   =      25.819559 E_angle  =     127.794569 
E_dihed  =      39.943922 E_impro  =       0.658647 E_vdwl   =      13.284920 
E_coul   =      13.359844 E_long   =     -16.193754 Press    =     903.816470
------------ Step           4100 ----- CPU =     1.037911 (sec) -------------
TotEng   =     242.834413 KinEng   =      40.150331 Temp     =     111.319041 
PotEng   =     202.684082 E_bond   =      27.728003 E_angle  =     128.709423 
E_dihed  =      35.247042 E_impro  =       0.876054 E_vdwl   =      12.660707 
E_coul   =      13.657086 E_long   =     -16.194232 Press    =     136.358064
------------ Step           4200 ----- CPU =     1.063196 (sec) -------------
TotEng   =     245.824396 KinEng   =      44.363725 Temp     =     123.000913 
PotEng   =     201.460670 E_bond   =      31.414033 E_angle  =     131.098599 
E_dihed  =      32.419632 E_impro  =       0.579843 E_vdwl   =       8.711356 
E_coul   =      13.431771 E_long   =     -16.194564 Press    =      22.384278
------------ Step           4300 ----- CPU =     1.088664 (sec) -------------
TotEng   =     249.163848 KinEng   =      44.414570 Temp     =     123.141883 
PotEng   =     204.749278 E_bond   =      28.305829 E_angle  =     136.031184 
E_dihed  =      39.381201 E_impro  =       0.535978 E_vdwl   =       3.605095 
E_coul   =      13.083177 E_long   =     -16.193185 Press    =     -96.772896
------------ Step           4400 ----- CPU =     1.114336 (sec) -------------
TotEng   =     252.488044 KinEng   =      50.222874 Temp     =     139.245730 
PotEng   =     202.265170 E_bond   =      25.141401 E_angle  =     140.702592 
E_dihed  =      40.089619 E_impro  =       0.633203 E_vdwl   =      -1.634694 
E_coul   =      13.526992 E_long   =     -16.193943 Press    =    -992.102339
------------ Step           4500 ----- CPU =     1.140046 (sec) -------------
TotEng   =     254.131547 KinEng   =      47.362063 Temp     =     131.313973 
PotEng   =     206.769484 E_bond   =      27.473197 E_angle  =     136.320540 
E_dihed  =      35.149934 E_impro  =       1.078597 E_vdwl   =       9.539202 
E_coul   =      13.400728 E_long   =     -16.192714 Press    =    -447.027451
------------ Step           4600 ----- CPU =     1.164732 (sec) -------------
TotEng   =     255.651135 KinEng   =      47.741405 Temp     =     132.365719 
PotEng   =     207.909731 E_bond   =      29.596068 E_angle  =     134.918525 
E_dihed  =      36.525069 E_impro  =       0.681013 E_vdwl   =       9.473274 
E_coul   =      12.908765 E_long   =     -16.192984 Press    =    -236.850701
------------ Step           4700 ----- CPU =     1.191571 (sec) -------------
TotEng   =     258.695703 KinEng   =      52.085790 Temp     =     144.410771 
PotEng   =     206.609912 E_bond   =      25.064100 E_angle  =     138.154637 
E_dihed  =      37.145861 E_impro  =       1.551088 E_vdwl   =       7.571219 
E_coul   =      13.316427 E_long   =     -16.193422 Press    =     224.529491
------------ Step           4800 ----- CPU =     1.216466 (sec) -------------
TotEng   =     261.285051 KinEng   =      49.312724 Temp     =     136.722289 
PotEng   =     211.972327 E_bond   =      24.201946 E_angle  =     136.345937 
E_dihed  =      42.332618 E_impro  =       0.963434 E_vdwl   =      11.037148 
E_coul   =      13.283914 E_long   =     -16.192669 Press    =     135.881533
------------ Step           4900 ----- CPU =     1.242402 (sec) -------------
TotEng   =     265.289322 KinEng   =      54.798114 Temp     =     151.930840 
PotEng   =     210.491209 E_bond   =      23.728057 E_angle  =     144.312350 
E_dihed  =      38.356962 E_impro  =       1.082567 E_vdwl   =       5.521516 
E_coul   =      13.684248 E_long   =     -16.194491 Press    =     348.273956
------------ Step           5000 ----- CPU =     1.267571 (sec) -------------
TotEng   =     268.075659 KinEng   =      57.554808 Temp     =     159.573928 
PotEng   =     210.520851 E_bond   =      25.114274 E_angle  =     142.971280 
E_dihed  =      38.505893 E_impro  =       1.556716 E_vdwl   =       5.084604 
E_coul   =      13.480134 E_long   =     -16.192050 Press    =     -39.780270
------------ Step           5100 ----- CPU =     1.293408 (sec) -------------
TotEng   =     268.970484 KinEng   =      62.598760 Temp     =     173.558569 
PotEng   =     206.371723 E_bond   =      26.933364 E_angle  =     122.872642 
E_dihed  =      48.052105 E_impro  =       0.845830 E_vdwl   =      10.670720 
E_coul   =      13.189774 E_long   =     -16.192712 Press    =    -793.458424
------------ Step           5200 ----- CPU =     1.319103 (sec) -------------
TotEng   =     266.906563 KinEng   =      53.083279 Temp     =     147.176365 
PotEng   =     213.823284 E_bond   =      25.390893 E_angle  =     128.750938 
E_dihed  =      49.484769 E_impro  =       1.049739 E_vdwl   =      12.514917 
E_coul   =      12.822628 E_long   =     -16.190600 Press    =     396.475397
------------ Step           5300 ----- CPU =     1.345024 (sec) -------------
TotEng   =     266.967984 KinEng   =      55.530927 Temp     =     153.962606 
PotEng   =     211.437056 E_bond   =      26.681601 E_angle  =     133.879316 
E_dihed  =      43.976905 E_impro  =       0.813624 E_vdwl   =       9.321267 
E_coul   =      12.953209 E_long   =     -16.188865 Press    =     152.653771
------------ Step           5400 ----- CPU =     1.370907 (sec) -------------
TotEng   =     268.382366 KinEng   =      54.759213 Temp     =     151.822985 
PotEng   =     213.623154 E_bond   =      24.777884 E_angle  =     145.449787 
E_dihed  =      37.788584 E_impro  =       0.768341 E_vdwl   =       7.682622 
E_coul   =      13.346247 E_long   =     -16.190312 Press    =     232.481387
------------ Step           5500 ----- CPU =     1.395609 (sec) -------------
TotEng   =     270.165454 KinEng   =      62.472558 Temp     =     173.208665 
PotEng   =     207.692896 E_bond   =      24.519765 E_angle  =     141.535491 
E_dihed  =      37.447430 E_impro  =       1.263345 E_vdwl   =       5.323081 
E_coul   =      13.794348 E_long   =     -16.190563 Press    =    -614.892539
------------ Step           5600 ----- CPU =     1.422814 (sec) -------------
TotEng   =     271.887262 KinEng   =      56.270621 Temp     =     156.013447 
PotEng   =     215.616642 E_bond   =      25.683409 E_angle  =     147.017004 
E_dihed  =      46.798874 E_impro  =       1.029316 E_vdwl   =      -2.168687 
E_coul   =      13.446004 E_long   =     -16.189279 Press    =    -906.808650
------------ Step           5700 ----- CPU =     1.448801 (sec) -------------
TotEng   =     275.448875 KinEng   =      63.858329 Temp     =     177.050793 
PotEng   =     211.590546 E_bond   =      27.028160 E_angle  =     139.037606 
E_dihed  =      44.375726 E_impro  =       0.867730 E_vdwl   =       2.841285 
E_coul   =      13.629386 E_long   =     -16.189345 Press    =    -656.440433
------------ Step           5800 ----- CPU =     1.474603 (sec) -------------
TotEng   =     277.182064 KinEng   =      69.777179 Temp     =     193.461137 
PotEng   =     207.404885 E_bond   =      22.391408 E_angle  =     145.335865 
E_dihed  =      37.080277 E_impro  =       1.039612 E_vdwl   =       4.441331 
E_coul   =      13.309818 E_long   =     -16.193425 Press    =     472.251307
------------ Step           5900 ----- CPU =      1.50018 (sec) -------------
TotEng   =     274.589459 KinEng   =      72.212811 Temp     =     200.214063 
PotEng   =     202.376648 E_bond   =      20.417295 E_angle  =     145.947985 
E_dihed  =      37.933986 E_impro  =       0.641448 E_vdwl   =       0.531573 
E_coul   =      13.097175 E_long   =     -16.192815 Press    =     306.180055
------------ Step           6000 ----- CPU =     1.526445 (sec) -------------
TotEng   =     269.968686 KinEng   =      61.545605 Temp     =     170.638636 
PotEng   =     208.423082 E_bond   =      20.644637 E_angle  =     146.119176 
E_dihed  =      41.400222 E_impro  =       0.989276 E_vdwl   =       2.214254 
E_coul   =      13.248123 E_long   =     -16.192605 Press    =    -175.614943
------------ Step           6100 ----- CPU =     1.552359 (sec) -------------
TotEng   =     268.740831 KinEng   =      55.979582 Temp     =     155.206527 
PotEng   =     212.761249 E_bond   =      21.047761 E_angle  =     153.015063 
E_dihed  =      44.202028 E_impro  =       1.678267 E_vdwl   =      -4.457405 
E_coul   =      13.467590 E_long   =     -16.192055 Press    =     309.551931
------------ Step           6200 ----- CPU =     1.577991 (sec) -------------
TotEng   =     270.841998 KinEng   =      56.362228 Temp     =     156.267433 
PotEng   =     214.479770 E_bond   =      19.441009 E_angle  =     166.304630 
E_dihed  =      41.678076 E_impro  =       0.748087 E_vdwl   =     -10.831453 
E_coul   =      13.331087 E_long   =     -16.191666 Press    =     775.328927
------------ Step           6300 ----- CPU =     1.602463 (sec) -------------
TotEng   =     274.946287 KinEng   =      60.127353 Temp     =     166.706455 
PotEng   =     214.818934 E_bond   =      18.254132 E_angle  =     166.631479 
E_dihed  =      36.478988 E_impro  =       1.269858 E_vdwl   =      -5.052535 
E_coul   =      13.428560 E_long   =     -16.191548 Press    =     384.299791
------------ Step           6400 ----- CPU =     1.628328 (sec) -------------
TotEng   =     279.749760 KinEng   =      66.173051 Temp     =     183.468489 
PotEng   =     213.576709 E_bond   =      23.899810 E_angle  =     168.036604 
E_dihed  =      35.199240 E_impro  =       1.915061 E_vdwl   =     -12.846091 
E_coul   =      13.562078 E_long   =     -16.189992 Press    =   -1063.801023
------------ Step           6500 ----- CPU =     1.655461 (sec) -------------
TotEng   =     283.538507 KinEng   =      76.303608 Temp     =     211.556027 
PotEng   =     207.234899 E_bond   =      25.732288 E_angle  =     158.182033 
E_dihed  =      33.359787 E_impro  =       1.056470 E_vdwl   =      -8.586464 
E_coul   =      13.682533 E_long   =     -16.191749 Press    =   -1332.821923
------------ Step           6600 ----- CPU =     1.681584 (sec) -------------
TotEng   =     283.658491 KinEng   =      74.371447 Temp     =     206.199001 
PotEng   =     209.287045 E_bond   =      23.207796 E_angle  =     152.078062 
E_dihed  =      32.812401 E_impro  =       0.617145 E_vdwl   =       3.072180 
E_coul   =      13.690472 E_long   =     -16.191011 Press    =     551.441989
------------ Step           6700 ----- CPU =     1.707749 (sec) -------------
TotEng   =     281.474937 KinEng   =      70.265613 Temp     =     194.815348 
PotEng   =     211.209324 E_bond   =      23.768174 E_angle  =     160.380744 
E_dihed  =      38.866257 E_impro  =       1.121358 E_vdwl   =     -10.758805 
E_coul   =      14.021583 E_long   =     -16.189988 Press    =     -53.880371
------------ Step           6800 ----- CPU =     1.734101 (sec) -------------
TotEng   =     278.341261 KinEng   =      81.578194 Temp     =     226.180110 
PotEng   =     196.763067 E_bond   =      19.150446 E_angle  =     154.578241 
E_dihed  =      35.196703 E_impro  =       0.593185 E_vdwl   =     -10.016697 
E_coul   =      13.449615 E_long   =     -16.188425 Press    =      41.458972
------------ Step           6900 ----- CPU =     1.761413 (sec) -------------
TotEng   =     272.360342 KinEng   =      68.344416 Temp     =     189.488722 
PotEng   =     204.015925 E_bond   =      21.849046 E_angle  =     163.318390 
E_dihed  =      38.230970 E_impro  =       1.186517 E_vdwl   =     -17.422456 
E_coul   =      13.043278 E_long   =     -16.189817 Press    =    -268.944899
------------ Step           7000 ----- CPU =     1.787437 (sec) -------------
TotEng   =     270.005994 KinEng   =      70.760566 Temp     =     196.187631 
PotEng   =     199.245428 E_bond   =      16.951036 E_angle  =     154.309498 
E_dihed  =      37.755122 E_impro  =       1.238297 E_vdwl   =      -7.996018 
E_coul   =      13.178852 E_long   =     -16.191359 Press    =    1078.600238
------------ Step           7100 ----- CPU =     1.811922 (sec) -------------
TotEng   =     270.432601 KinEng   =      73.112262 Temp     =     202.707842 
PotEng   =     197.320339 E_bond   =      21.536763 E_angle  =     146.383688 
E_dihed  =      39.906060 E_impro  =       0.693116 E_vdwl   =      -8.568888 
E_coul   =      13.559526 E_long   =     -16.189927 Press    =    -594.022158
------------ Step           7200 ----- CPU =     1.837607 (sec) -------------
TotEng   =     273.820444 KinEng   =      77.186339 Temp     =     214.003447 
PotEng   =     196.634105 E_bond   =      21.186473 E_angle  =     151.647513 
E_dihed  =      40.416042 E_impro  =       1.550813 E_vdwl   =     -15.110591 
E_coul   =      13.136164 E_long   =     -16.192310 Press    =     279.904633
------------ Step           7300 ----- CPU =     1.863227 (sec) -------------
TotEng   =     283.390466 KinEng   =      76.661772 Temp     =     212.549057 
PotEng   =     206.728694 E_bond   =      20.511844 E_angle  =     162.626689 
E_dihed  =      43.055854 E_impro  =       0.925221 E_vdwl   =     -17.154781 
E_coul   =      12.958841 E_long   =     -16.194974 Press    =     831.208033
------------ Step           7400 ----- CPU =     1.887575 (sec) -------------
TotEng   =     292.430530 KinEng   =      84.322465 Temp     =     233.788758 
PotEng   =     208.108065 E_bond   =      23.639535 E_angle  =     153.228327 
E_dihed  =      42.326761 E_impro  =       0.717338 E_vdwl   =      -8.419609 
E_coul   =      12.812059 E_long   =     -16.196344 Press    =     132.363810
------------ Step           7500 ----- CPU =     1.912919 (sec) -------------
TotEng   =     294.935913 KinEng   =      82.649031 Temp     =     229.149069 
PotEng   =     212.286882 E_bond   =      22.519446 E_angle  =     152.675462 
E_dihed  =      40.128080 E_impro  =       1.553099 E_vdwl   =      -1.383561 
E_coul   =      12.990979 E_long   =     -16.196624 Press    =     616.909121
------------ Step           7600 ----- CPU =     1.939208 (sec) -------------
TotEng   =     295.583001 KinEng   =      88.078337 Temp     =     244.202122 
PotEng   =     207.504665 E_bond   =      19.682032 E_angle  =     148.631332 
E_dihed  =      41.709375 E_impro  =       0.400039 E_vdwl   =      -0.038381 
E_coul   =      13.319080 E_long   =     -16.198813 Press    =    1288.000234
------------ Step           7700 ----- CPU =     1.964438 (sec) -------------
TotEng   =     292.667406 KinEng   =      86.268006 Temp     =     239.182878 
PotEng   =     206.399400 E_bond   =      25.330080 E_angle  =     146.881564 
E_dihed  =      55.506661 E_impro  =       0.757792 E_vdwl   =     -18.859516 
E_coul   =      12.981395 E_long   =     -16.198577 Press    =   -1504.894274
------------ Step           7800 ----- CPU =     1.989607 (sec) -------------
TotEng   =     288.858877 KinEng   =      80.588052 Temp     =     223.434887 
PotEng   =     208.270825 E_bond   =      25.768085 E_angle  =     166.357741 
E_dihed  =      49.801547 E_impro  =       1.286324 E_vdwl   =     -32.268809 
E_coul   =      13.522541 E_long   =     -16.196605 Press    =   -1193.035368
------------ Step           7900 ----- CPU =     2.014857 (sec) -------------
TotEng   =     285.712051 KinEng   =      84.137075 Temp     =     233.274753 
PotEng   =     201.574976 E_bond   =      21.673498 E_angle  =     150.909028 
E_dihed  =      47.540229 E_impro  =       0.886412 E_vdwl   =     -16.494796 
E_coul   =      13.256236 E_long   =     -16.195631 Press    =     151.821863
------------ Step           8000 ----- CPU =      2.04044 (sec) -------------
TotEng   =     283.410233 KinEng   =      77.308051 Temp     =     214.340902 
PotEng   =     206.102182 E_bond   =      18.429275 E_angle  =     160.996652 
E_dihed  =      47.650345 E_impro  =       1.135145 E_vdwl   =     -19.409872 
E_coul   =      13.495446 E_long   =     -16.194808 Press    =    -651.992854
------------ Step           8100 ----- CPU =     2.065498 (sec) -------------
TotEng   =     284.583707 KinEng   =      81.312475 Temp     =     225.443391 
PotEng   =     203.271231 E_bond   =      18.846720 E_angle  =     158.958369 
E_dihed  =      48.019368 E_impro  =       1.550187 E_vdwl   =     -21.042995 
E_coul   =      13.135100 E_long   =     -16.195518 Press    =    -501.320234
------------ Step           8200 ----- CPU =     2.090236 (sec) -------------
TotEng   =     292.302942 KinEng   =      93.505416 Temp     =     259.249003 
PotEng   =     198.797527 E_bond   =      21.214333 E_angle  =     154.127947 
E_dihed  =      46.428252 E_impro  =       0.705654 E_vdwl   =     -20.520178 
E_coul   =      13.036702 E_long   =     -16.195183 Press    =    -427.390507
------------ Step           8300 ----- CPU =     2.115098 (sec) -------------
TotEng   =     300.244940 KinEng   =     103.384915 Temp     =     286.640468 
PotEng   =     196.860025 E_bond   =      21.580057 E_angle  =     155.485050 
E_dihed  =      53.374015 E_impro  =       1.302904 E_vdwl   =     -31.500441 
E_coul   =      12.815812 E_long   =     -16.197372 Press    =     756.825750
------------ Step           8400 ----- CPU =     2.140277 (sec) -------------
TotEng   =     303.264349 KinEng   =     101.763626 Temp     =     282.145352 
PotEng   =     201.500723 E_bond   =      21.512777 E_angle  =     140.201432 
E_dihed  =      58.112648 E_impro  =       1.782940 E_vdwl   =     -16.906778 
E_coul   =      12.996007 E_long   =     -16.198303 Press    =    -681.731249
------------ Step           8500 ----- CPU =     2.165471 (sec) -------------
TotEng   =     302.408093 KinEng   =      93.198178 Temp     =     258.397168 
PotEng   =     209.209915 E_bond   =      18.184983 E_angle  =     155.579398 
E_dihed  =      51.867058 E_impro  =       1.222964 E_vdwl   =     -14.554702 
E_coul   =      13.107878 E_long   =     -16.197665 Press    =     793.903847
------------ Step           8600 ----- CPU =     2.190717 (sec) -------------
TotEng   =     298.561632 KinEng   =     102.154235 Temp     =     283.228338 
PotEng   =     196.407397 E_bond   =      16.963898 E_angle  =     155.260365 
E_dihed  =      41.655568 E_impro  =       3.172624 E_vdwl   =     -17.706431 
E_coul   =      13.260290 E_long   =     -16.198917 Press    =    1630.854072
------------ Step           8700 ----- CPU =     2.215849 (sec) -------------
TotEng   =     285.636169 KinEng   =      95.844152 Temp     =     265.733280 
PotEng   =     189.792017 E_bond   =      26.180624 E_angle  =     150.987355 
E_dihed  =      37.146801 E_impro  =       1.640979 E_vdwl   =     -23.290193 
E_coul   =      13.324409 E_long   =     -16.197958 Press    =   -1413.808353
------------ Step           8800 ----- CPU =     2.241322 (sec) -------------
TotEng   =     275.826342 KinEng   =      83.547229 Temp     =     231.639371 
PotEng   =     192.279113 E_bond   =      24.803940 E_angle  =     157.550213 
E_dihed  =      38.158802 E_impro  =       1.713645 E_vdwl   =     -26.891652 
E_coul   =      13.138177 E_long   =     -16.194013 Press    =   -1255.174752
------------ Step           8900 ----- CPU =     2.266743 (sec) -------------
TotEng   =     274.527767 KinEng   =      84.300238 Temp     =     233.727131 
PotEng   =     190.227529 E_bond   =      20.931713 E_angle  =     158.728339 
E_dihed  =      33.444712 E_impro  =       1.778685 E_vdwl   =     -21.816875 
E_coul   =      13.354174 E_long   =     -16.193219 Press    =    -785.587884
------------ Step           9000 ----- CPU =     2.293111 (sec) -------------
TotEng   =     278.170299 KinEng   =      86.806111 Temp     =     240.674806 
PotEng   =     191.364188 E_bond   =      15.978722 E_angle  =     157.650656 
E_dihed  =      38.240325 E_impro  =       2.187360 E_vdwl   =     -19.979325 
E_coul   =      13.473597 E_long   =     -16.187146 Press    =     850.794233
------------ Step           9100 ----- CPU =     2.318189 (sec) -------------
TotEng   =     285.753779 KinEng   =      89.156887 Temp     =     247.192462 
PotEng   =     196.596892 E_bond   =      19.818387 E_angle  =     158.684759 
E_dihed  =      40.502788 E_impro  =       2.069966 E_vdwl   =     -21.807783 
E_coul   =      13.511492 E_long   =     -16.182717 Press    =    -202.133009
------------ Step           9200 ----- CPU =     2.344203 (sec) -------------
TotEng   =     294.838791 KinEng   =     103.654968 Temp     =     287.389203 
PotEng   =     191.183824 E_bond   =      27.106255 E_angle  =     154.999901 
E_dihed  =      36.939171 E_impro  =       1.191264 E_vdwl   =     -26.489122 
E_coul   =      13.623568 E_long   =     -16.187213 Press    =   -1409.427789
------------ Step           9300 ----- CPU =     2.370235 (sec) -------------
TotEng   =     300.841279 KinEng   =      93.517901 Temp     =     259.283619 
PotEng   =     207.323377 E_bond   =      23.046771 E_angle  =     175.819828 
E_dihed  =      36.219360 E_impro  =       1.471070 E_vdwl   =     -26.178079 
E_coul   =      13.136876 E_long   =     -16.192449 Press    =     638.191689
------------ Step           9400 ----- CPU =     2.395006 (sec) -------------
TotEng   =     307.167049 KinEng   =      98.826925 Temp     =     274.003184 
PotEng   =     208.340124 E_bond   =      17.248211 E_angle  =     174.457789 
E_dihed  =      36.544184 E_impro  =       0.300638 E_vdwl   =     -17.538147 
E_coul   =      13.517886 E_long   =     -16.190438 Press    =    1588.344015
------------ Step           9500 ----- CPU =     2.419699 (sec) -------------
TotEng   =     314.392038 KinEng   =     111.567467 Temp     =     309.327052 
PotEng   =     202.824571 E_bond   =      19.793612 E_angle  =     157.856235 
E_dihed  =      37.653699 E_impro  =       1.412110 E_vdwl   =     -11.607219 
E_coul   =      13.906061 E_long   =     -16.189928 Press    =     610.874828
------------ Step           9600 ----- CPU =       2.4454 (sec) -------------
TotEng   =     316.653432 KinEng   =     115.447016 Temp     =     320.083317 
PotEng   =     201.206416 E_bond   =      36.748132 E_angle  =     160.630466 
E_dihed  =      39.165218 E_impro  =       1.618549 E_vdwl   =     -34.593161 
E_coul   =      13.825769 E_long   =     -16.188557 Press    =   -2743.155465
------------ Step           9700 ----- CPU =      2.47093 (sec) -------------
TotEng   =     313.497539 KinEng   =     105.902998 Temp     =     293.621993 
PotEng   =     207.594541 E_bond   =      28.058725 E_angle  =     157.883050 
E_dihed  =      44.208194 E_impro  =       3.940301 E_vdwl   =     -23.944429 
E_coul   =      13.638437 E_long   =     -16.189737 Press    =    -144.492901
------------ Step           9800 ----- CPU =     2.495517 (sec) -------------
TotEng   =     309.851653 KinEng   =      92.958498 Temp     =     257.732643 
PotEng   =     216.893154 E_bond   =      17.634675 E_angle  =     163.648529 
E_dihed  =      41.818406 E_impro  =       3.252862 E_vdwl   =      -6.634317 
E_coul   =      13.363012 E_long   =     -16.190012 Press    =    2371.216213
------------ Step           9900 ----- CPU =     2.519783 (sec) -------------
TotEng   =     310.697865 KinEng   =      88.608763 Temp     =     245.672759 
PotEng   =     222.089102 E_bond   =      25.987019 E_angle  =     158.648867 
E_dihed  =      48.334904 E_impro  =       2.964125 E_vdwl   =     -10.836086 
E_coul   =      13.180091 E_long   =     -16.189820 Press    =      27.860885
------------ Step          10000 ----- CPU =     2.544125 (sec) -------------
TotEng   =     320.628447 KinEng   =     111.888654 Temp     =     310.217561 
PotEng   =     208.739792 E_bond   =      23.828554 E_angle  =     167.695572 
E_dihed  =      44.914115 E_impro  =       3.568078 E_vdwl   =     -28.358039 
E_coul   =      13.281861 E_long   =     -16.190350 Press    =     -15.391187
Loop time of 2.5442 on 1 procs for 10000 steps with 122 atoms

Performance: 169.798 ns/day, 0.141 hours/ns, 3930.503 timesteps/s, 479.521 katom-step/s
99.4% CPU use with 1 MPI tasks x 1 OpenMP threads

MPI task timing breakdown:
Section |  min time  |  avg time  |  max time  |%varavg| %total
---------------------------------------------------------------
Pair    | 1.9113     | 1.9113     | 1.9113     |   0.0 | 75.12
Bond    | 0.30507    | 0.30507    | 0.30507    |   0.0 | 11.99
Kspace  | 0.13754    | 0.13754    | 0.13754    |   0.0 |  5.41
Neigh   | 0.081856   | 0.081856   | 0.081856   |   0.0 |  3.22
Comm    | 0.067768   | 0.067768   | 0.067768   |   0.0 |  2.66
Output  | 0.011405   | 0.011405   | 0.011405   |   0.0 |  0.45
Modify  | 0.020647   | 0.020647   | 0.020647   |   0.0 |  0.81
Other   |            | 0.00862    |            |       |  0.34

Nlocal:            122 ave         122 max         122 min
Histogram: 1 0 0 0 0 0 0 0 0 0
Nghost:           1671 ave        1671 max        1671 min
Histogram: 1 0 0 0 0 0 0 0 0 0
Neighs:          14488 ave       14488 max       14488 min
Histogram: 1 0 0 0 0 0 0 0 0 0

Total # of neighbors = 14488
Ave neighs/atom = 118.7541
Ave special neighs/atom = 10.967213
Neighbor list builds = 90
Dangerous builds = 0
unfix                4
undump               1

thermo               10
fix                  4 all nvt temp 300 300 100
fix                  freeze oleic_acid setforce 0.0 0.0 0.0
fix                  1 all gcmc 1 0 100 0 1234567 300.0 0 1 mol 69 full_energy mcmoves 0 1 1
dump                 2 all custom 10 ${sname}.simple_mc.lammpstrj id type xu yu zu vx vy vz
dump                 2 all custom 10 simplified_mc.simple_mc.lammpstrj id type xu yu zu vx vy vz
run                  10000
Ewald initialization ...
  using 12-bit tables for long-range coulomb (src/kspace.cpp:342)
  G vector (1/distance) = 0.091315817
  estimated absolute RMS force accuracy = 0.034067589
  estimated relative force accuracy = 0.00010259353
  KSpace vectors: actual max1d max3d = 3 1 13
                  kxmax kymax kzmax  = 1 1 1
Generated 28 of 28 mixed pair_coeff terms from geometric mixing rule
0 atoms in group FixGCMC:gcmc_exclusion_group:1
0 atoms in group FixGCMC:rotation_gas_atoms:1
WARNING: Fix gcmc is being applied to the default group all (src/MC/fix_gcmc.cpp:672)
WARNING: Neighbor exclusions used with KSpace solver may give inconsistent Coulombic energies (src/neighbor.cpp:639)
Per MPI rank memory allocation (min/avg/max) = 32.92 | 32.92 | 32.92 Mbytes
------------ Step          10000 ----- CPU =            0 (sec) -------------
TotEng   =     320.628447 KinEng   =     111.888654 Temp     =     310.217561 
PotEng   =     208.739792 E_bond   =      23.828554 E_angle  =     167.695572 
E_dihed  =      44.914115 E_impro  =       3.568078 E_vdwl   =     -28.358039 
E_coul   =      13.281861 E_long   =     -16.190350 Press    =     -15.391187
------------ Step          10010 ----- CPU =     1.693253 (sec) -------------
TotEng   =     313.560156 KinEng   =     114.448032 Temp     =     317.313580 
PotEng   =     199.112123 E_bond   =      23.380322 E_angle  =     167.570894 
E_dihed  =      43.404491 E_impro  =       3.581237 E_vdwl   =     -35.743396 
E_coul   =      13.109524 E_long   =     -16.190948 Press    =    -647.394411
------------ Step          10020 ----- CPU =      3.41988 (sec) -------------
TotEng   =     308.646996 KinEng   =     114.378951 Temp     =     317.122047 
PotEng   =     194.268045 E_bond   =      24.660272 E_angle  =     169.331037 
E_dihed  =      41.016406 E_impro  =       3.219140 E_vdwl   =     -40.850957 
E_coul   =      13.082353 E_long   =     -16.190206 Press    =    -772.191459
------------ Step          10030 ----- CPU =     5.175362 (sec) -------------
TotEng   =     309.642919 KinEng   =     111.674810 Temp     =     309.624665 
PotEng   =     197.968109 E_bond   =      25.529987 E_angle  =     172.025695 
E_dihed  =      38.810884 E_impro  =       2.613577 E_vdwl   =     -37.957113 
E_coul   =      13.135504 E_long   =     -16.190424 Press    =    -518.598945
------------ Step          10040 ----- CPU =     6.925322 (sec) -------------
TotEng   =     309.597390 KinEng   =     107.230534 Temp     =     297.302660 
PotEng   =     202.366856 E_bond   =      24.388965 E_angle  =     176.962928 
E_dihed  =      37.274663 E_impro  =       2.516380 E_vdwl   =     -35.803220 
E_coul   =      13.216581 E_long   =     -16.189441 Press    =     139.162629
------------ Step          10050 ----- CPU =      8.67089 (sec) -------------
TotEng   =     308.742743 KinEng   =     104.239385 Temp     =     289.009534 
PotEng   =     204.503358 E_bond   =      21.969329 E_angle  =     181.698139 
E_dihed  =      36.072483 E_impro  =       2.703218 E_vdwl   =     -35.013341 
E_coul   =      13.262891 E_long   =     -16.189360 Press    =     426.919117
------------ Step          10060 ----- CPU =     10.41973 (sec) -------------
TotEng   =     308.904091 KinEng   =     102.955507 Temp     =     285.449911 
PotEng   =     205.948584 E_bond   =      20.892568 E_angle  =     185.146183 
E_dihed  =      34.716769 E_impro  =       2.456945 E_vdwl   =     -34.245104 
E_coul   =      13.171594 E_long   =     -16.190369 Press    =    1052.948507
------------ Step          10070 ----- CPU =     12.16559 (sec) -------------
TotEng   =     309.432430 KinEng   =     101.461865 Temp     =     281.308703 
PotEng   =     207.970565 E_bond   =      22.256970 E_angle  =     186.128311 
E_dihed  =      33.668129 E_impro  =       2.204646 E_vdwl   =     -33.295296 
E_coul   =      13.198030 E_long   =     -16.190224 Press    =    1296.288740
------------ Step          10080 ----- CPU =     13.87802 (sec) -------------
TotEng   =     310.470594 KinEng   =     100.293188 Temp     =     278.068482 
PotEng   =     210.177406 E_bond   =      21.812821 E_angle  =     186.457031 
E_dihed  =      33.246396 E_impro  =       2.435749 E_vdwl   =     -30.802672 
E_coul   =      13.218463 E_long   =     -16.190382 Press    =    1576.400119
------------ Step          10090 ----- CPU =     15.55355 (sec) -------------
TotEng   =     307.585544 KinEng   =     100.916366 Temp     =     279.796276 
PotEng   =     206.669178 E_bond   =      21.173867 E_angle  =     185.741492 
E_dihed  =      32.996306 E_impro  =       2.533879 E_vdwl   =     -32.449419 
E_coul   =      12.864062 E_long   =     -16.191009 Press    =    1620.561318
------------ Step          10100 ----- CPU =     17.23752 (sec) -------------
TotEng   =     306.826781 KinEng   =     101.276112 Temp     =     280.793694 
PotEng   =     205.550669 E_bond   =      20.526857 E_angle  =     185.082183 
E_dihed  =      33.786138 E_impro  =       2.680856 E_vdwl   =     -33.352506 
E_coul   =      13.017918 E_long   =     -16.190776 Press    =    1301.696640
------------ Step          10110 ----- CPU =     18.91969 (sec) -------------
TotEng   =     309.410182 KinEng   =     101.370397 Temp     =     281.055102 
PotEng   =     208.039785 E_bond   =      20.468983 E_angle  =     186.114380 
E_dihed  =      35.247474 E_impro  =       2.594942 E_vdwl   =     -33.122652 
E_coul   =      12.927545 E_long   =     -16.190887 Press    =    1356.629099
------------ Step          10120 ----- CPU =     20.60379 (sec) -------------
TotEng   =     307.923056 KinEng   =      98.844112 Temp     =     274.050835 
PotEng   =     209.078944 E_bond   =      23.037919 E_angle  =     186.928647 
E_dihed  =      36.738740 E_impro  =       2.156179 E_vdwl   =     -36.729976 
E_coul   =      13.138469 E_long   =     -16.191035 Press    =     662.248063
------------ Step          10130 ----- CPU =     22.30585 (sec) -------------
TotEng   =     309.064248 KinEng   =      98.368139 Temp     =     272.731175 
PotEng   =     210.696109 E_bond   =      26.697843 E_angle  =     183.936877 
E_dihed  =      38.922618 E_impro  =       1.847763 E_vdwl   =     -37.644446 
E_coul   =      13.125484 E_long   =     -16.190031 Press    =     365.058778
------------ Step          10140 ----- CPU =     24.01188 (sec) -------------
TotEng   =     308.159948 KinEng   =      99.008950 Temp     =     274.507859 
PotEng   =     209.150997 E_bond   =      26.689036 E_angle  =     181.804744 
E_dihed  =      41.470831 E_impro  =       1.662443 E_vdwl   =     -39.278002 
E_coul   =      12.992167 E_long   =     -16.190222 Press    =     336.055277
------------ Step          10150 ----- CPU =     25.71892 (sec) -------------
TotEng   =     307.603767 KinEng   =     101.535477 Temp     =     281.512798 
PotEng   =     206.068290 E_bond   =      24.584865 E_angle  =     180.725597 
E_dihed  =      43.355715 E_impro  =       1.618281 E_vdwl   =     -40.937654 
E_coul   =      12.912336 E_long   =     -16.190851 Press    =     -55.125613
------------ Step          10160 ----- CPU =     27.42938 (sec) -------------
TotEng   =     308.482363 KinEng   =     101.910719 Temp     =     282.553176 
PotEng   =     206.571644 E_bond   =      22.396993 E_angle  =     183.168017 
E_dihed  =      44.578608 E_impro  =       1.873638 E_vdwl   =     -42.343166 
E_coul   =      13.088024 E_long   =     -16.190470 Press    =     150.757281
------------ Step          10170 ----- CPU =     29.15092 (sec) -------------
TotEng   =     309.858506 KinEng   =     104.920858 Temp     =     290.898954 
PotEng   =     204.937649 E_bond   =      19.602303 E_angle  =     184.927689 
E_dihed  =      45.295517 E_impro  =       1.759384 E_vdwl   =     -43.547523 
E_coul   =      13.090503 E_long   =     -16.190223 Press    =      78.995175
------------ Step          10180 ----- CPU =     30.87837 (sec) -------------
TotEng   =     311.818582 KinEng   =     106.024478 Temp     =     293.958805 
PotEng   =     205.794103 E_bond   =      20.690787 E_angle  =     185.629095 
E_dihed  =      45.427369 E_impro  =       1.198974 E_vdwl   =     -44.088072 
E_coul   =      13.125691 E_long   =     -16.189741 Press    =     218.188188
------------ Step          10190 ----- CPU =     32.61183 (sec) -------------
TotEng   =     312.117316 KinEng   =     104.888592 Temp     =     290.809496 
PotEng   =     207.228724 E_bond   =      23.284666 E_angle  =     186.358411 
E_dihed  =      45.408074 E_impro  =       1.182125 E_vdwl   =     -45.873944 
E_coul   =      13.058078 E_long   =     -16.188687 Press    =     -35.174506
------------ Step          10200 ----- CPU =     34.35605 (sec) -------------
TotEng   =     314.750280 KinEng   =     103.163922 Temp     =     286.027752 
PotEng   =     211.586358 E_bond   =      26.145920 E_angle  =     186.144813 
E_dihed  =      45.112055 E_impro  =       1.902400 E_vdwl   =     -44.674946 
E_coul   =      13.144817 E_long   =     -16.188703 Press    =    -697.594552
------------ Step          10210 ----- CPU =     36.11792 (sec) -------------
TotEng   =     313.315865 KinEng   =      99.595068 Temp     =     276.132904 
PotEng   =     213.720797 E_bond   =      28.968956 E_angle  =     186.504981 
E_dihed  =      44.146475 E_impro  =       2.675800 E_vdwl   =     -45.270402 
E_coul   =      12.883989 E_long   =     -16.189001 Press    =   -1217.596045
------------ Step          10220 ----- CPU =     37.88992 (sec) -------------
TotEng   =     312.119275 KinEng   =      97.512560 Temp     =     270.359034 
PotEng   =     214.606715 E_bond   =      32.475086 E_angle  =     186.804997 
E_dihed  =      42.682361 E_impro  =       3.077828 E_vdwl   =     -46.930904 
E_coul   =      12.685719 E_long   =     -16.188373 Press    =   -1448.333455
------------ Step          10230 ----- CPU =     39.63675 (sec) -------------
TotEng   =     316.803745 KinEng   =     100.777289 Temp     =     279.410678 
PotEng   =     216.026456 E_bond   =      33.567900 E_angle  =     184.883240 
E_dihed  =      41.249205 E_impro  =       2.765386 E_vdwl   =     -43.342316 
E_coul   =      13.090351 E_long   =     -16.187311 Press    =   -1737.723186
------------ Step          10240 ----- CPU =     41.36475 (sec) -------------
TotEng   =     314.128846 KinEng   =     105.246186 Temp     =     291.800945 
PotEng   =     208.882660 E_bond   =      36.244386 E_angle  =     180.179017 
E_dihed  =      40.354270 E_impro  =       2.131519 E_vdwl   =     -46.871331 
E_coul   =      13.031783 E_long   =     -16.186984 Press    =   -1654.118484
------------ Step          10250 ----- CPU =     43.09892 (sec) -------------
TotEng   =     317.311532 KinEng   =     107.793539 Temp     =     298.863625 
PotEng   =     209.517993 E_bond   =      39.567139 E_angle  =     174.946483 
E_dihed  =      39.901722 E_impro  =       1.968825 E_vdwl   =     -43.371678 
E_coul   =      12.693028 E_long   =     -16.187526 Press    =   -1673.635766
------------ Step          10260 ----- CPU =     44.82148 (sec) -------------
TotEng   =     315.181002 KinEng   =     109.738345 Temp     =     304.255708 
PotEng   =     205.442657 E_bond   =      39.285872 E_angle  =     172.983690 
E_dihed  =      39.162902 E_impro  =       2.010410 E_vdwl   =     -44.494942 
E_coul   =      12.682481 E_long   =     -16.187757 Press    =   -1891.422337
------------ Step          10270 ----- CPU =     46.56751 (sec) -------------
TotEng   =     317.628361 KinEng   =     113.179981 Temp     =     313.797837 
PotEng   =     204.448379 E_bond   =      36.257995 E_angle  =     172.764594 
E_dihed  =      37.647512 E_impro  =       1.743155 E_vdwl   =     -40.464348 
E_coul   =      12.687044 E_long   =     -16.187572 Press    =   -2030.859371
------------ Step          10280 ----- CPU =     48.33766 (sec) -------------
TotEng   =     318.190662 KinEng   =     111.915916 Temp     =     310.293144 
PotEng   =     206.274746 E_bond   =      36.207208 E_angle  =     174.801182 
E_dihed  =      36.019688 E_impro  =       1.295544 E_vdwl   =     -38.612990 
E_coul   =      12.751817 E_long   =     -16.187703 Press    =   -2077.113232
------------ Step          10290 ----- CPU =     50.13196 (sec) -------------
TotEng   =     317.630191 KinEng   =     111.208680 Temp     =     308.332294 
PotEng   =     206.421511 E_bond   =      38.374992 E_angle  =     173.729150 
E_dihed  =      34.949821 E_impro  =       0.901735 E_vdwl   =     -38.353040 
E_coul   =      13.004325 E_long   =     -16.185473 Press    =   -1862.265207
------------ Step          10300 ----- CPU =     51.92424 (sec) -------------
TotEng   =     321.059306 KinEng   =     111.923709 Temp     =     310.314751 
PotEng   =     209.135597 E_bond   =      37.270658 E_angle  =     172.518383 
E_dihed  =      34.907478 E_impro  =       0.951701 E_vdwl   =     -32.941430 
E_coul   =      12.615267 E_long   =     -16.186460 Press    =   -1266.642160
------------ Step          10310 ----- CPU =     53.74081 (sec) -------------
TotEng   =     320.173331 KinEng   =     111.916473 Temp     =     310.294690 
PotEng   =     208.256857 E_bond   =      32.575058 E_angle  =     174.729664 
E_dihed  =      35.294957 E_impro  =       1.338322 E_vdwl   =     -32.181756 
E_coul   =      12.688469 E_long   =     -16.187857 Press    =     -78.528358
------------ Step          10320 ----- CPU =     55.56533 (sec) -------------
TotEng   =     322.149088 KinEng   =     115.513641 Temp     =     320.268040 
PotEng   =     206.635446 E_bond   =      26.313979 E_angle  =     176.490928 
E_dihed  =      35.220124 E_impro  =       1.643408 E_vdwl   =     -29.600949 
E_coul   =      12.755030 E_long   =     -16.187074 Press    =     447.722069
------------ Step          10330 ----- CPU =     57.41522 (sec) -------------
TotEng   =     323.909025 KinEng   =     116.571964 Temp     =     323.202300 
PotEng   =     207.337061 E_bond   =      23.794024 E_angle  =     178.921457 
E_dihed  =      34.936067 E_impro  =       1.847461 E_vdwl   =     -29.358396 
E_coul   =      13.384079 E_long   =     -16.187630 Press    =    1259.265367
------------ Step          10340 ----- CPU =     59.26199 (sec) -------------
TotEng   =     324.453688 KinEng   =     116.957189 Temp     =     324.270357 
PotEng   =     207.496499 E_bond   =      22.086052 E_angle  =     181.315329 
E_dihed  =      35.105594 E_impro  =       2.115375 E_vdwl   =     -30.302316 
E_coul   =      13.363388 E_long   =     -16.186922 Press    =    1299.605710
------------ Step          10350 ----- CPU =     61.12135 (sec) -------------
TotEng   =     318.847445 KinEng   =     113.629907 Temp     =     315.045280 
PotEng   =     205.217539 E_bond   =      24.751030 E_angle  =     184.185009 
E_dihed  =      35.381971 E_impro  =       2.406813 E_vdwl   =     -38.107070 
E_coul   =      12.785267 E_long   =     -16.185482 Press    =    1444.097496
------------ Step          10360 ----- CPU =     62.98352 (sec) -------------
TotEng   =     320.310990 KinEng   =     115.318446 Temp     =     319.726850 
PotEng   =     204.992544 E_bond   =      21.775965 E_angle  =     189.277447 
E_dihed  =      34.951512 E_impro  =       2.343256 E_vdwl   =     -40.324409 
E_coul   =      13.153609 E_long   =     -16.184835 Press    =     541.335625
------------ Step          10370 ----- CPU =     64.83957 (sec) -------------
TotEng   =     320.501405 KinEng   =     118.591869 Temp     =     328.802600 
PotEng   =     201.909535 E_bond   =      22.127598 E_angle  =     190.501019 
E_dihed  =      34.216862 E_impro  =       1.763036 E_vdwl   =     -44.193404 
E_coul   =      13.679578 E_long   =     -16.185154 Press    =     100.502258
------------ Step          10380 ----- CPU =     66.68547 (sec) -------------
TotEng   =     324.038617 KinEng   =     119.018669 Temp     =     329.985925 
PotEng   =     205.019949 E_bond   =      23.956618 E_angle  =     192.110618 
E_dihed  =      33.871493 E_impro  =       1.276438 E_vdwl   =     -43.620750 
E_coul   =      13.613196 E_long   =     -16.187665 Press    =     -36.151809
------------ Step          10390 ----- CPU =     68.55069 (sec) -------------
TotEng   =     324.619735 KinEng   =     118.076424 Temp     =     327.373498 
PotEng   =     206.543311 E_bond   =      25.698427 E_angle  =     195.809272 
E_dihed  =      34.306061 E_impro  =       1.152782 E_vdwl   =     -47.699186 
E_coul   =      13.464735 E_long   =     -16.188780 Press    =     -93.816030
------------ Step          10400 ----- CPU =      70.4342 (sec) -------------
TotEng   =     327.206912 KinEng   =     120.094843 Temp     =     332.969678 
PotEng   =     207.112069 E_bond   =      26.429095 E_angle  =     195.230692 
E_dihed  =      35.356650 E_impro  =       1.035828 E_vdwl   =     -48.106005 
E_coul   =      13.354190 E_long   =     -16.188382 Press    =     -48.168865
------------ Step          10410 ----- CPU =     72.30397 (sec) -------------
TotEng   =     328.914247 KinEng   =     115.362211 Temp     =     319.848191 
PotEng   =     213.552036 E_bond   =      30.671154 E_angle  =     195.373172 
[...]
E_coul   =      12.878179 E_long   =     -16.204911 Press    =     219.047367
------------ Step          19540 ----- CPU =     1590.481 (sec) -------------
TotEng   =     269.731752 KinEng   =     114.072404 Temp     =     316.272130 
PotEng   =     155.659348 E_bond   =      23.680859 E_angle  =     168.846144 
E_dihed  =      42.626319 E_impro  =       1.683202 E_vdwl   =     -78.466968 
E_coul   =      13.494779 E_long   =     -16.204987 Press    =     -11.427544
------------ Step          19550 ----- CPU =     1592.151 (sec) -------------
TotEng   =     268.589421 KinEng   =     110.561651 Temp     =     306.538370 
PotEng   =     158.027771 E_bond   =      28.496194 E_angle  =     168.225778 
E_dihed  =      41.477106 E_impro  =       2.732172 E_vdwl   =     -80.218273 
E_coul   =      13.519054 E_long   =     -16.204261 Press    =    1016.956588
------------ Step          19560 ----- CPU =      1593.81 (sec) -------------
TotEng   =     269.530216 KinEng   =     110.579703 Temp     =     306.588419 
PotEng   =     158.950513 E_bond   =      26.626606 E_angle  =     167.804076 
E_dihed  =      41.791395 E_impro  =       4.036820 E_vdwl   =     -78.414944 
E_coul   =      13.311159 E_long   =     -16.204598 Press    =     446.471436
------------ Step          19570 ----- CPU =     1595.507 (sec) -------------
TotEng   =     269.100912 KinEng   =     110.164046 Temp     =     305.435987 
PotEng   =     158.936866 E_bond   =      27.415355 E_angle  =     169.064715 
E_dihed  =      41.348651 E_impro  =       3.573504 E_vdwl   =     -79.576071 
E_coul   =      13.315404 E_long   =     -16.204692 Press    =     312.217167
------------ Step          19580 ----- CPU =     1597.184 (sec) -------------
TotEng   =     267.722205 KinEng   =     110.017486 Temp     =     305.029642 
PotEng   =     157.704719 E_bond   =      31.761665 E_angle  =     166.984811 
E_dihed  =      40.439817 E_impro  =       2.582477 E_vdwl   =     -80.623088 
E_coul   =      12.763449 E_long   =     -16.204412 Press    =    -653.712488
------------ Step          19590 ----- CPU =     1598.857 (sec) -------------
TotEng   =     267.716143 KinEng   =     107.797894 Temp     =     298.875698 
PotEng   =     159.918249 E_bond   =      33.728965 E_angle  =     168.537856 
E_dihed  =      39.518028 E_impro  =       1.757972 E_vdwl   =     -80.668466 
E_coul   =      13.248098 E_long   =     -16.204204 Press    =   -1548.887092
------------ Step          19600 ----- CPU =     1600.527 (sec) -------------
TotEng   =     266.380588 KinEng   =     103.729303 Temp     =     287.595302 
PotEng   =     162.651285 E_bond   =      30.506425 E_angle  =     175.577699 
E_dihed  =      39.141384 E_impro  =       1.314371 E_vdwl   =     -80.946699 
E_coul   =      13.262691 E_long   =     -16.204586 Press    =   -1220.992318
------------ Step          19610 ----- CPU =     1602.221 (sec) -------------
TotEng   =     265.874736 KinEng   =      97.933885 Temp     =     271.527180 
PotEng   =     167.940851 E_bond   =      31.284143 E_angle  =     178.748402 
E_dihed  =      39.443193 E_impro  =       1.001331 E_vdwl   =     -79.328046 
E_coul   =      12.996522 E_long   =     -16.204694 Press    =   -1678.005956
------------ Step          19620 ----- CPU =     1603.931 (sec) -------------
TotEng   =     265.972648 KinEng   =      92.165576 Temp     =     255.534223 
PotEng   =     173.807071 E_bond   =      34.124305 E_angle  =     178.859495 
E_dihed  =      39.818004 E_impro  =       1.259509 E_vdwl   =     -76.890073 
E_coul   =      12.840272 E_long   =     -16.204441 Press    =    -368.919266
------------ Step          19630 ----- CPU =     1605.624 (sec) -------------
TotEng   =     266.545022 KinEng   =      93.427849 Temp     =     259.033944 
PotEng   =     173.117173 E_bond   =      32.498073 E_angle  =     178.804511 
E_dihed  =      39.535192 E_impro  =       1.782382 E_vdwl   =     -76.677401 
E_coul   =      13.378712 E_long   =     -16.204296 Press    =    -515.645507
------------ Step          19640 ----- CPU =     1607.314 (sec) -------------
TotEng   =     267.136044 KinEng   =      90.942261 Temp     =     252.142511 
PotEng   =     176.193784 E_bond   =      32.332811 E_angle  =     182.348664 
E_dihed  =      39.527426 E_impro  =       1.643838 E_vdwl   =     -76.724484 
E_coul   =      13.269995 E_long   =     -16.204467 Press    =     194.602242
------------ Step          19650 ----- CPU =     1609.012 (sec) -------------
TotEng   =     264.500006 KinEng   =      91.622956 Temp     =     254.029778 
PotEng   =     172.877049 E_bond   =      35.821270 E_angle  =     175.540991 
E_dihed  =      40.295588 E_impro  =       1.847716 E_vdwl   =     -77.019491 
E_coul   =      12.595411 E_long   =     -16.204435 Press    =    -158.657668
------------ Step          19660 ----- CPU =     1610.714 (sec) -------------
TotEng   =     265.500502 KinEng   =      92.878514 Temp     =     257.510882 
PotEng   =     172.621988 E_bond   =      40.654659 E_angle  =     168.881410 
E_dihed  =      39.439735 E_impro  =       1.827097 E_vdwl   =     -74.535415 
E_coul   =      12.559234 E_long   =     -16.204732 Press    =    -177.872993
------------ Step          19670 ----- CPU =     1612.398 (sec) -------------
TotEng   =     266.483581 KinEng   =      98.108263 Temp     =     272.010653 
PotEng   =     168.375319 E_bond   =      33.994866 E_angle  =     171.818158 
E_dihed  =      39.202804 E_impro  =       1.657324 E_vdwl   =     -75.081142 
E_coul   =      12.987144 E_long   =     -16.203835 Press    =    -765.211413
------------ Step          19680 ----- CPU =     1614.087 (sec) -------------
TotEng   =     265.533168 KinEng   =      96.298529 Temp     =     266.993064 
PotEng   =     169.234640 E_bond   =      31.301263 E_angle  =     174.205569 
E_dihed  =      41.080571 E_impro  =       1.688682 E_vdwl   =     -75.675845 
E_coul   =      12.838801 E_long   =     -16.204401 Press    =    -886.593269
------------ Step          19690 ----- CPU =     1615.758 (sec) -------------
TotEng   =     264.415565 KinEng   =     100.247671 Temp     =     277.942283 
PotEng   =     164.167893 E_bond   =      30.776480 E_angle  =     165.935614 
E_dihed  =      41.903344 E_impro  =       1.931620 E_vdwl   =     -73.091330 
E_coul   =      12.916446 E_long   =     -16.204280 Press    =    -139.578299
------------ Step          19700 ----- CPU =     1617.447 (sec) -------------
TotEng   =     264.311612 KinEng   =     107.788894 Temp     =     298.850745 
PotEng   =     156.522718 E_bond   =      28.822704 E_angle  =     160.049135 
E_dihed  =      40.759198 E_impro  =       1.867455 E_vdwl   =     -71.379245 
E_coul   =      12.608489 E_long   =     -16.205018 Press    =    -260.882807
------------ Step          19710 ----- CPU =     1619.127 (sec) -------------
TotEng   =     264.832851 KinEng   =     109.452383 Temp     =     303.462863 
PotEng   =     155.380468 E_bond   =      29.853902 E_angle  =     162.012740 
E_dihed  =      39.597016 E_impro  =       1.357889 E_vdwl   =     -73.808622 
E_coul   =      12.572011 E_long   =     -16.204468 Press    =     425.355416
------------ Step          19720 ----- CPU =     1620.799 (sec) -------------
TotEng   =     263.832112 KinEng   =     106.862550 Temp     =     296.282405 
PotEng   =     156.969562 E_bond   =      30.219122 E_angle  =     162.723589 
E_dihed  =      39.973063 E_impro  =       1.476506 E_vdwl   =     -73.786038 
E_coul   =      12.567884 E_long   =     -16.204565 Press    =    -404.234418
------------ Step          19730 ----- CPU =     1622.477 (sec) -------------
TotEng   =     264.262997 KinEng   =     109.974907 Temp     =     304.911590 
PotEng   =     154.288090 E_bond   =      30.434958 E_angle  =     155.361414 
E_dihed  =      40.729073 E_impro  =       1.909544 E_vdwl   =     -70.707511 
E_coul   =      12.765177 E_long   =     -16.204565 Press    =     903.286166
------------ Step          19740 ----- CPU =     1624.181 (sec) -------------
TotEng   =     265.237741 KinEng   =     100.612549 Temp     =     278.953927 
PotEng   =     164.625192 E_bond   =      32.984195 E_angle  =     161.778693 
E_dihed  =      39.689853 E_impro  =       1.194159 E_vdwl   =     -68.019196 
E_coul   =      13.202698 E_long   =     -16.205209 Press    =     315.578986
------------ Step          19750 ----- CPU =     1625.892 (sec) -------------
TotEng   =     268.006590 KinEng   =      96.589634 Temp     =     267.800169 
PotEng   =     171.416956 E_bond   =      33.914907 E_angle  =     167.316807 
E_dihed  =      38.221779 E_impro  =       1.146718 E_vdwl   =     -66.105498 
E_coul   =      13.127180 E_long   =     -16.204937 Press    =     521.583425
------------ Step          19760 ----- CPU =     1627.602 (sec) -------------
TotEng   =     267.054831 KinEng   =     100.655963 Temp     =     279.074295 
PotEng   =     166.398867 E_bond   =      33.314396 E_angle  =     161.705537 
E_dihed  =      37.077381 E_impro  =       1.742798 E_vdwl   =     -64.021620 
E_coul   =      12.786024 E_long   =     -16.205649 Press    =    -342.535130
------------ Step          19770 ----- CPU =     1629.312 (sec) -------------
TotEng   =     265.311798 KinEng   =      99.870850 Temp     =     276.897524 
PotEng   =     165.440949 E_bond   =      34.601422 E_angle  =     161.003034 
E_dihed  =      35.915471 E_impro  =       1.558273 E_vdwl   =     -64.877978 
E_coul   =      13.446475 E_long   =     -16.205748 Press    =    -388.566874
------------ Step          19780 ----- CPU =     1631.016 (sec) -------------
TotEng   =     267.101965 KinEng   =     103.167788 Temp     =     286.038472 
PotEng   =     163.934176 E_bond   =      34.362050 E_angle  =     158.543491 
E_dihed  =      35.983701 E_impro  =       2.446454 E_vdwl   =     -64.545511 
E_coul   =      13.350363 E_long   =     -16.206371 Press    =    -273.328772
------------ Step          19790 ----- CPU =     1632.724 (sec) -------------
TotEng   =     265.441845 KinEng   =     108.292955 Temp     =     300.248282 
PotEng   =     157.148891 E_bond   =      27.975173 E_angle  =     159.300066 
E_dihed  =      36.490117 E_impro  =       3.056697 E_vdwl   =     -66.767920 
E_coul   =      13.300430 E_long   =     -16.205671 Press    =    -216.696374
------------ Step          19800 ----- CPU =     1634.405 (sec) -------------
TotEng   =     266.442583 KinEng   =     108.830762 Temp     =     301.739384 
PotEng   =     157.611821 E_bond   =      29.844096 E_angle  =     156.750572 
E_dihed  =      36.863945 E_impro  =       2.733921 E_vdwl   =     -65.595045 
E_coul   =      13.219980 E_long   =     -16.205648 Press    =    1118.626850
------------ Step          19810 ----- CPU =     1636.081 (sec) -------------
TotEng   =     266.390361 KinEng   =     109.335580 Temp     =     303.139019 
PotEng   =     157.054781 E_bond   =      24.988200 E_angle  =     162.531720 
E_dihed  =      36.498782 E_impro  =       2.538330 E_vdwl   =     -66.777454 
E_coul   =      13.481110 E_long   =     -16.205906 Press    =     498.742363
------------ Step          19820 ----- CPU =      1637.75 (sec) -------------
TotEng   =     270.725768 KinEng   =     105.230718 Temp     =     291.758059 
PotEng   =     165.495050 E_bond   =      25.933579 E_angle  =     168.930327 
E_dihed  =      35.729050 E_impro  =       2.078806 E_vdwl   =     -63.969193 
E_coul   =      12.998470 E_long   =     -16.205988 Press    =    1471.676699
------------ Step          19830 ----- CPU =     1639.436 (sec) -------------
TotEng   =     268.968179 KinEng   =     104.994285 Temp     =     291.102535 
PotEng   =     163.973895 E_bond   =      28.725366 E_angle  =     166.244597 
E_dihed  =      35.374425 E_impro  =       2.041738 E_vdwl   =     -65.364658 
E_coul   =      13.156818 E_long   =     -16.204392 Press    =     633.879876
------------ Step          19840 ----- CPU =     1641.121 (sec) -------------
TotEng   =     267.739791 KinEng   =     105.360610 Temp     =     292.118192 
PotEng   =     162.379182 E_bond   =      29.688899 E_angle  =     165.340849 
E_dihed  =      33.733913 E_impro  =       1.715842 E_vdwl   =     -65.171289 
E_coul   =      13.276800 E_long   =     -16.205831 Press    =    1630.337291
------------ Step          19850 ----- CPU =     1642.808 (sec) -------------
TotEng   =     269.668900 KinEng   =     100.707842 Temp     =     279.218131 
PotEng   =     168.961059 E_bond   =      28.769457 E_angle  =     169.171186 
E_dihed  =      34.307014 E_impro  =       2.230482 E_vdwl   =     -62.330857 
E_coul   =      13.019850 E_long   =     -16.206073 Press    =     717.410552
------------ Step          19860 ----- CPU =     1644.522 (sec) -------------
TotEng   =     269.606837 KinEng   =      97.699484 Temp     =     270.877290 
PotEng   =     171.907353 E_bond   =      30.048130 E_angle  =     171.955941 
E_dihed  =      35.966962 E_impro  =       2.238338 E_vdwl   =     -65.112968 
E_coul   =      13.014949 E_long   =     -16.204000 Press    =     509.972652
------------ Step          19870 ----- CPU =     1646.209 (sec) -------------
TotEng   =     270.970179 KinEng   =      95.039682 Temp     =     263.502840 
PotEng   =     175.930497 E_bond   =      32.742603 E_angle  =     172.061624 
E_dihed  =      36.390243 E_impro  =       1.978081 E_vdwl   =     -64.155351 
E_coul   =      13.117995 E_long   =     -16.204698 Press    =     558.504909
------------ Step          19880 ----- CPU =       1647.9 (sec) -------------
TotEng   =     269.761058 KinEng   =      97.263883 Temp     =     269.669563 
PotEng   =     172.497175 E_bond   =      30.532183 E_angle  =     173.160082 
E_dihed  =      35.770969 E_impro  =       2.326012 E_vdwl   =     -66.315964 
E_coul   =      13.227874 E_long   =     -16.203982 Press    =     -99.103631
------------ Step          19890 ----- CPU =     1649.591 (sec) -------------
TotEng   =     273.637935 KinEng   =     102.250817 Temp     =     283.496116 
PotEng   =     171.387119 E_bond   =      27.955532 E_angle  =     174.236990 
E_dihed  =      35.496601 E_impro  =       2.395572 E_vdwl   =     -65.448248 
E_coul   =      12.953927 E_long   =     -16.203256 Press    =    1197.183780
------------ Step          19900 ----- CPU =     1651.284 (sec) -------------
TotEng   =     273.523907 KinEng   =     108.296825 Temp     =     300.259013 
PotEng   =     165.227082 E_bond   =      25.347428 E_angle  =     174.245349 
E_dihed  =      35.155701 E_impro  =       2.176720 E_vdwl   =     -68.497475 
E_coul   =      13.003775 E_long   =     -16.204415 Press    =     608.318786
------------ Step          19910 ----- CPU =     1652.983 (sec) -------------
TotEng   =     274.361291 KinEng   =     111.997361 Temp     =     310.518956 
PotEng   =     162.363929 E_bond   =      27.081608 E_angle  =     170.860047 
E_dihed  =      35.006359 E_impro  =       2.331775 E_vdwl   =     -69.620928 
E_coul   =      12.909743 E_long   =     -16.204673 Press    =    1991.324112
------------ Step          19920 ----- CPU =     1654.647 (sec) -------------
TotEng   =     273.092482 KinEng   =     110.409494 Temp     =     306.116505 
PotEng   =     162.682988 E_bond   =      30.254137 E_angle  =     169.128653 
E_dihed  =      35.041939 E_impro  =       2.200601 E_vdwl   =     -70.961948 
E_coul   =      13.223712 E_long   =     -16.204106 Press    =     491.018092
------------ Step          19930 ----- CPU =     1656.292 (sec) -------------
TotEng   =     273.477458 KinEng   =     109.265240 Temp     =     302.943996 
PotEng   =     164.212219 E_bond   =      31.284607 E_angle  =     169.964558 
E_dihed  =      34.681595 E_impro  =       1.668747 E_vdwl   =     -70.072699 
E_coul   =      12.888815 E_long   =     -16.203404 Press    =     671.662924
------------ Step          19940 ----- CPU =     1657.932 (sec) -------------
TotEng   =     275.871381 KinEng   =     105.472922 Temp     =     292.429583 
PotEng   =     170.398459 E_bond   =      35.730949 E_angle  =     166.318718 
E_dihed  =      35.694148 E_impro  =       2.113205 E_vdwl   =     -66.041743 
E_coul   =      12.785971 E_long   =     -16.202790 Press    =    -421.921114
------------ Step          19950 ----- CPU =     1659.581 (sec) -------------
TotEng   =     276.583449 KinEng   =      98.358526 Temp     =     272.704522 
PotEng   =     178.224923 E_bond   =      39.906367 E_angle  =     169.915993 
E_dihed  =      36.642291 E_impro  =       2.479843 E_vdwl   =     -68.003045 
E_coul   =      13.485447 E_long   =     -16.201974 Press    =   -1226.006841
------------ Step          19960 ----- CPU =     1661.245 (sec) -------------
TotEng   =     275.397417 KinEng   =     106.231157 Temp     =     294.531833 
PotEng   =     169.166260 E_bond   =      34.814255 E_angle  =     170.076956 
E_dihed  =      35.457227 E_impro  =       1.884002 E_vdwl   =     -70.025692 
E_coul   =      13.161602 E_long   =     -16.202091 Press    =   -1045.933482
------------ Step          19970 ----- CPU =     1662.918 (sec) -------------
TotEng   =     277.872348 KinEng   =     104.333305 Temp     =     289.269932 
PotEng   =     173.539043 E_bond   =      36.021679 E_angle  =     170.314671 
E_dihed  =      36.274120 E_impro  =       1.624305 E_vdwl   =     -67.132529 
E_coul   =      12.637440 E_long   =     -16.200642 Press    =   -1818.950351
------------ Step          19980 ----- CPU =     1664.561 (sec) -------------
TotEng   =     281.784627 KinEng   =     106.297374 Temp     =     294.715422 
PotEng   =     175.487253 E_bond   =      38.801657 E_angle  =     166.616495 
E_dihed  =      38.262381 E_impro  =       1.448569 E_vdwl   =     -66.480428 
E_coul   =      13.041676 E_long   =     -16.203097 Press    =    -619.817901
------------ Step          19990 ----- CPU =     1666.207 (sec) -------------
TotEng   =     278.017523 KinEng   =     100.500527 Temp     =     278.643340 
PotEng   =     177.516996 E_bond   =      37.212987 E_angle  =     175.470211 
E_dihed  =      38.581219 E_impro  =       1.745138 E_vdwl   =     -72.284882 
E_coul   =      12.994581 E_long   =     -16.202258 Press    =   -1227.537318
------------ Step          20000 ----- CPU =     1667.844 (sec) -------------
TotEng   =     280.125788 KinEng   =     110.514602 Temp     =     306.407924 
PotEng   =     169.611186 E_bond   =      35.020311 E_angle  =     171.531321 
E_dihed  =      37.167727 E_impro  =       1.872317 E_vdwl   =     -73.006262 
E_coul   =      13.228341 E_long   =     -16.202569 Press    =      32.632857
Loop time of 1667.84 on 1 procs for 10000 steps with 122 atoms

Performance: 0.259 ns/day, 92.658 hours/ns, 5.996 timesteps/s, 731.483 atom-step/s
99.5% CPU use with 1 MPI tasks x 1 OpenMP threads

MPI task timing breakdown:
Section |  min time  |  avg time  |  max time  |%varavg| %total
---------------------------------------------------------------
Pair    | 1.9816     | 1.9816     | 1.9816     |   0.0 |  0.12
Bond    | 0.31752    | 0.31752    | 0.31752    |   0.0 |  0.02
Kspace  | 0.14487    | 0.14487    | 0.14487    |   0.0 |  0.01
Neigh   | 12.797     | 12.797     | 12.797     |   0.0 |  0.77
Comm    | 0.2981     | 0.2981     | 0.2981     |   0.0 |  0.02
Output  | 0.31762    | 0.31762    | 0.31762    |   0.0 |  0.02
Modify  | 1651.9     | 1651.9     | 1651.9     |   0.0 | 99.05
Other   |            | 0.04158    |            |       |  0.00

Nlocal:            122 ave         122 max         122 min
Histogram: 1 0 0 0 0 0 0 0 0 0
Nghost:           2001 ave        2001 max        2001 min
Histogram: 1 0 0 0 0 0 0 0 0 0
Neighs:          13427 ave       13427 max       13427 min
Histogram: 1 0 0 0 0 0 0 0 0 0

Total # of neighbors = 13427
Ave neighs/atom = 110.05738
Ave special neighs/atom = 10.967213
Neighbor list builds = 1020000
Dangerous builds = 0
unfix                1
unfix                4
unfix                freeze
undump               2
Total wall time: 0:27:50
