Created by /home/rramji/scripts/createLammpsInput.pl on Mon Jul 10 22:45:02 2023

        1901 atoms
         884 bonds
        1683 angles
        2363 dihedrals
         153 impropers

           6 atom types
           6 bond types
           2 angle types
           5 dihedral types
           1 improper types

		  -2.022340  36.308080 xlo xhi
		  -2.022340  40.656880 ylo yhi
		  -2.022340  37.325851 zlo zhi

Masses

    1 6.5377E+01 # Zn     
    2 3.2060E+01 # S_3    
    3 1.5999E+01 # O_2    
    4 1.2011E+01 # C_3    
    5 1.2011E+01 # C_R    
    6 1.0080E+00 # H_     

Pair Coeffs

    1    0.05500    4.04468 # Zn Zn 
    2    0.34400    3.59032 # S_3 S_3 
    3    0.09570    3.03315 # O_2 O_2 
    4    0.09510    3.47299 # C_3 C_3 
    5    0.09510    3.47299 # C_R C_R 
    6    0.01520    2.84642 # H_ H_ 

Bond Coeffs

    1      700     1.25 # O_2 C_R 
    2      350     1.53 # C_3 C_3 
    3      350     1.09 # C_3 H_ 
    4      350     1.46 # C_R C_3 
    5      525     1.39 # C_R C_R 
    6      350     1.02 # C_R H_ 

Angle Coeffs

    1       50      120 # X C_R X 
    2       50  109.471 # X C_3 X 

Dihedral Coeffs

    1 0.0833333       -1        6 # C_R C_R C_3 X 
    2 0.0833333       -1        6 # O_2 C_R C_3 X 
    3 0.111111        1        3 # X C_3 C_3 X 
    4 0.166667        1        3 # X C_R C_3 X 
    5    3.125       -1        2 # X C_R C_R X 

Improper Coeffs

    1  13.3333        0 # C_R X X X 

Atoms

       1        1        1  2.00000000    0.00000    0.00000    0.00000    0    0    0
       2        2        1  2.00000000    0.00000    0.00000    9.44010    0    0    0
       3        3        1  2.00000000    2.22510    0.00000    3.14670    0    0    0
       4        4        1  2.17034000    2.22510    0.00000   12.58690    0    0    0
       5        5        1  2.00000000    4.45010    0.00000    6.29340    0    0    0
       6        6        1  2.00000000    5.56270    1.92700    3.14670    0    0    0
       7        7        1  2.17034000    5.56270    1.92700   12.58690    0    0    0
       8        8        1  2.00000000    1.11250    1.92700    6.29340    0    0    0
       9        9        1  2.00000000    3.33760    1.92700    0.00000    0    0    0
      10       10        1  2.00000000    3.33760    1.92700    9.44010    0    0    0
      11       11        2 -2.00000000    4.45010    0.00000    3.93340    0    0    0
      12       12        2 -2.00000000    4.45010    0.00000   13.37350    0    0    0
      13       13        2 -2.00000000    0.00000    0.00000    7.08010    0    0    0
      14       14        2 -2.00000000    2.22510    0.00000    0.78670    0    0    0
      15       15        2 -2.00000000    2.22510    0.00000   10.22680    0    0    0
      16       16        2 -2.00000000    1.11250    1.92700    3.93340    0    0    0
      17       17        2 -2.00000000    1.11250    1.92700   13.37350    0    0    0
      18       18        2 -2.00000000    3.33760    1.92700    7.08010    0    0    0
      19       19        2 -2.00000000    5.56270    1.92700    0.78670    0    0    0
      20       20        2 -2.00000000    5.56270    1.92700   10.22680    0    0    0
      21       21        1  2.00000000    6.67520    0.00000    0.00000    0    0    0
      22       22        1  2.00000000    6.67520    0.00000    9.44010    0    0    0
      23       23        1  2.00000000    8.90020    0.00000    3.14670    0    0    0
      24       24        1  2.17034000    8.90020    0.00000   12.58690    0    0    0
      25       25        1  2.00000000   11.12530    0.00000    6.29340    0    0    0
      26       26        1  2.00000000   12.23780    1.92700    3.14670    0    0    0
      27       27        1  2.17034000   12.23780    1.92700   12.58690    0    0    0
      28       28        1  2.00000000    7.78770    1.92700    6.29340    0    0    0
      29       29        1  2.00000000   10.01280    1.92700    0.00000    0    0    0
      30       30        1  2.00000000   10.01280    1.92700    9.44010    0    0    0
      31       31        2 -2.00000000   11.12530    0.00000    3.93340    0    0    0
      32       32        2 -2.00000000   11.12530    0.00000   13.37350    0    0    0
      33       33        2 -2.00000000    6.67520    0.00000    7.08010    0    0    0
      34       34        2 -2.00000000    8.90020    0.00000    0.78670    0    0    0
      35       35        2 -2.00000000    8.90020    0.00000   10.22680    0    0    0
      36       36        2 -2.00000000    7.78770    1.92700    3.93340    0    0    0
      37       37        2 -2.00000000    7.78770    1.92700   13.37350    0    0    0
      38       38        2 -2.00000000   10.01280    1.92700    7.08010    0    0    0
      39       39        2 -2.00000000   12.23780    1.92700    0.78670    0    0    0
      40       40        2 -2.00000000   12.23780    1.92700   10.22680    0    0    0
      41       41        1  2.00000000   13.35040    0.00000    0.00000    0    0    0
      42       42        1  2.00000000   13.35040    0.00000    9.44010    0    0    0
      43       43        1  2.00000000   15.57540    0.00000    3.14670    0    0    0
      44       44        1  2.17034000   15.57540    0.00000   12.58690    0    0    0
      45       45        1  2.00000000   17.80050    0.00000    6.29340    0    0    0
      46       46        1  2.00000000   18.91300    1.92700    3.14670    0    0    0
      47       47        1  2.17034000   18.91300    1.92700   12.58690    0    0    0
      48       48        1  2.00000000   14.46290    1.92700    6.29340    0    0    0
      49       49        1  2.00000000   16.68800    1.92700    0.00000    0    0    0
      50       50        1  2.00000000   16.68800    1.92700    9.44010    0    0    0
      51       51        2 -2.00000000   17.80050    0.00000    3.93340    0    0    0
      52       52        2 -2.00000000   17.80050    0.00000   13.37350    0    0    0
      53       53        2 -2.00000000   13.35040    0.00000    7.08010    0    0    0
      54       54        2 -2.00000000   15.57540    0.00000    0.78670    0    0    0
      55       55        2 -2.00000000   15.57540    0.00000   10.22680    0    0    0
      56       56        2 -2.00000000   14.46290    1.92700    3.93340    0    0    0
      57       57        2 -2.00000000   14.46290    1.92700   13.37350    0    0    0
      58       58        2 -2.00000000   16.68800    1.92700    7.08010    0    0    0
      59       59        2 -2.00000000   18.91300    1.92700    0.78670    0    0    0
      60       60        2 -2.00000000   18.91300    1.92700   10.22680    0    0    0
      61       61        1  2.00000000   20.02560    0.00000    0.00000    0    0    0
      62       62        1  2.00000000   20.02560    0.00000    9.44010    0    0    0
      63       63        1  2.00000000   22.25060    0.00000    3.14670    0    0    0
      64       64        1  2.17034000   22.25060    0.00000   12.58690    0    0    0
      65       65        1  2.00000000   24.47570    0.00000    6.29340    0    0    0
      66       66        1  2.00000000   25.58820    1.92700    3.14670    0    0    0
      67       67        1  2.17034000   25.58820    1.92700   12.58690    0    0    0
      68       68        1  2.00000000   21.13810    1.92700    6.29340    0    0    0
      69       69        1  2.00000000   23.36320    1.92700    0.00000    0    0    0
      70       70        1  2.00000000   23.36320    1.92700    9.44010    0    0    0
      71       71        2 -2.00000000   24.47570    0.00000    3.93340    0    0    0
      72       72        2 -2.00000000   24.47570    0.00000   13.37350    0    0    0
      73       73        2 -2.00000000   20.02560    0.00000    7.08010    0    0    0
      74       74        2 -2.00000000   22.25060    0.00000    0.78670    0    0    0
      75       75        2 -2.00000000   22.25060    0.00000   10.22680    0    0    0
      76       76        2 -2.00000000   21.13810    1.92700    3.93340    0    0    0
      77       77        2 -2.00000000   21.13810    1.92700   13.37350    0    0    0
      78       78        2 -2.00000000   23.36320    1.92700    7.08010    0    0    0
      79       79        2 -2.00000000   25.58820    1.92700    0.78670    0    0    0
      80       80        2 -2.00000000   25.58820    1.92700   10.22680    0    0    0
      81       81        1  2.00000000   26.70080    0.00000    0.00000    0    0    0
      82       82        1  2.00000000   26.70080    0.00000    9.44010    0    0    0
      83       83        1  2.00000000   28.92580    0.00000    3.14670    0    0    0
      84       84        1  2.17034000   28.92580    0.00000   12.58690    0    0    0
      85       85        1  2.00000000   31.15090    0.00000    6.29340    0    0    0
      86       86        1  2.00000000   32.26340    1.92700    3.14670    0    0    0
      87       87        1  2.17034000   32.26340    1.92700   12.58690    0    0    0
      88       88        1  2.00000000   27.81330    1.92700    6.29340    0    0    0
      89       89        1  2.00000000   30.03840    1.92700    0.00000    0    0    0
      90       90        1  2.00000000   30.03840    1.92700    9.44010    0    0    0
      91       91        2 -2.00000000   31.15090    0.00000    3.93340    0    0    0
      92       92        2 -2.00000000   31.15090    0.00000   13.37350    0    0    0
      93       93        2 -2.00000000   26.70080    0.00000    7.08010    0    0    0
      94       94        2 -2.00000000   28.92580    0.00000    0.78670    0    0    0
      95       95        2 -2.00000000   28.92580    0.00000   10.22680    0    0    0
      96       96        2 -2.00000000   27.81330    1.92700    3.93340    0    0    0
      97       97        2 -2.00000000   27.81330    1.92700   13.37350    0    0    0
      98       98        2 -2.00000000   30.03840    1.92700    7.08010    0    0    0
      99       99        2 -2.00000000   32.26340    1.92700    0.78670    0    0    0
     100      100        2 -2.00000000   32.26340    1.92700   10.22680    0    0    0
     101      101        1  2.00000000    0.00000    3.85390    0.00000    0    0    0
     102      102        1  2.00000000    0.00000    3.85390    9.44010    0    0    0
     103      103        1  2.00000000    2.22510    3.85390    3.14670    0    0    0
     104      104        1  2.17034000    2.22510    3.85390   12.58690    0    0    0
     105      105        1  2.00000000    4.45010    3.85390    6.29340    0    0    0
     106      106        1  2.00000000    5.56270    5.78090    3.14670    0    0    0
     107      107        1  2.17034000    5.56270    5.78090   12.58690    0    0    0
     108      108        1  2.00000000    1.11250    5.78090    6.29340    0    0    0
     109      109        1  2.00000000    3.33760    5.78090    0.00000    0    0    0
     110      110        1  2.00000000    3.33760    5.78090    9.44010    0    0    0
     111      111        2 -2.00000000    4.45010    3.85390    3.93340    0    0    0
     112      112        2 -2.00000000    4.45010    3.85390   13.37350    0    0    0
     113      113        2 -2.00000000    0.00000    3.85390    7.08010    0    0    0
     114      114        2 -2.00000000    2.22510    3.85390    0.78670    0    0    0
     115      115        2 -2.00000000    2.22510    3.85390   10.22680    0    0    0
     116      116        2 -2.00000000    1.11250    5.78090    3.93340    0    0    0
     117      117        2 -2.00000000    1.11250    5.78090   13.37350    0    0    0
     118      118        2 -2.00000000    3.33760    5.78090    7.08010    0    0    0
     119      119        2 -2.00000000    5.56270    5.78090    0.78670    0    0    0
     120      120        2 -2.00000000    5.56270    5.78090   10.22680    0    0    0
     121      121        1  2.00000000    6.67520    3.85390    0.00000    0    0    0
     122      122        1  2.00000000    6.67520    3.85390    9.44010    0    0    0
     123      123        1  2.00000000    8.90020    3.85390    3.14670    0    0    0
     124      124        1  2.17034000    8.90020    3.85390   12.58690    0    0    0
     125      125        1  2.00000000   11.12530    3.85390    6.29340    0    0    0
     126      126        1  2.00000000   12.23780    5.78090    3.14670    0    0    0
     127      127        1  2.17034000   12.23780    5.78090   12.58690    0    0    0
     128      128        1  2.00000000    7.78770    5.78090    6.29340    0    0    0
     129      129        1  2.00000000   10.01280    5.78090    0.00000    0    0    0
     130      130        1  2.00000000   10.01280    5.78090    9.44010    0    0    0
     131      131        2 -2.00000000   11.12530    3.85390    3.93340    0    0    0
     132      132        2 -2.00000000   11.12530    3.85390   13.37350    0    0    0
     133      133        2 -2.00000000    6.67520    3.85390    7.08010    0    0    0
     134      134        2 -2.00000000    8.90020    3.85390    0.78670    0    0    0
     135      135        2 -2.00000000    8.90020    3.85390   10.22680    0    0    0
     136      136        2 -2.00000000    7.78770    5.78090    3.93340    0    0    0
     137      137        2 -2.00000000    7.78770    5.78090   13.37350    0    0    0
     138      138        2 -2.00000000   10.01280    5.78090    7.08010    0    0    0
     139      139        2 -2.00000000   12.23780    5.78090    0.78670    0    0    0
     140      140        2 -2.00000000   12.23780    5.78090   10.22680    0    0    0
     141      141        1  2.00000000   13.35040    3.85390    0.00000    0    0    0
     142      142        1  2.00000000   13.35040    3.85390    9.44010    0    0    0
     143      143        1  2.00000000   15.57540    3.85390    3.14670    0    0    0
     144      144        1  2.17034000   15.57540    3.85390   12.58690    0    0    0
     145      145        1  2.00000000   17.80050    3.85390    6.29340    0    0    0
     146      146        1  2.00000000   18.91300    5.78090    3.14670    0    0    0
     147      147        1  2.17034000   18.91300    5.78090   12.58690    0    0    0
     148      148        1  2.00000000   14.46290    5.78090    6.29340    0    0    0
     149      149        1  2.00000000   16.68800    5.78090    0.00000    0    0    0
     150      150        1  2.00000000   16.68800    5.78090    9.44010    0    0    0
     151      151        2 -2.00000000   17.80050    3.85390    3.93340    0    0    0
     152      152        2 -2.00000000   17.80050    3.85390   13.37350    0    0    0
     153      153        2 -2.00000000   13.35040    3.85390    7.08010    0    0    0
     154      154        2 -2.00000000   15.57540    3.85390    0.78670    0    0    0
     155      155        2 -2.00000000   15.57540    3.85390   10.22680    0    0    0
     156      156        2 -2.00000000   14.46290    5.78090    3.93340    0    0    0
     157      157        2 -2.00000000   14.46290    5.78090   13.37350    0    0    0
     158      158        2 -2.00000000   16.68800    5.78090    7.08010    0    0    0
     159      159        2 -2.00000000   18.91300    5.78090    0.78670    0    0    0
     160      160        2 -2.00000000   18.91300    5.78090   10.22680    0    0    0
     161      161        1  2.00000000   20.02560    3.85390    0.00000    0    0    0
     162      162        1  2.00000000   20.02560    3.85390    9.44010    0    0    0
     163      163        1  2.00000000   22.25060    3.85390    3.14670    0    0    0
     164      164        1  2.17034000   22.25060    3.85390   12.58690    0    0    0
     165      165        1  2.00000000   24.47570    3.85390    6.29340    0    0    0
     166      166        1  2.00000000   25.58820    5.78090    3.14670    0    0    0
     167      167        1  2.17034000   25.58820    5.78090   12.58690    0    0    0
     168      168        1  2.00000000   21.13810    5.78090    6.29340    0    0    0
     169      169        1  2.00000000   23.36320    5.78090    0.00000    0    0    0
     170      170        1  2.00000000   23.36320    5.78090    9.44010    0    0    0
     171      171        2 -2.00000000   24.47570    3.85390    3.93340    0    0    0
     172      172        2 -2.00000000   24.47570    3.85390   13.37350    0    0    0
     173      173        2 -2.00000000   20.02560    3.85390    7.08010    0    0    0
     174      174        2 -2.00000000   22.25060    3.85390    0.78670    0    0    0
     175      175        2 -2.00000000   22.25060    3.85390   10.22680    0    0    0
     176      176        2 -2.00000000   21.13810    5.78090    3.93340    0    0    0
     177      177        2 -2.00000000   21.13810    5.78090   13.37350    0    0    0
     178      178        2 -2.00000000   23.36320    5.78090    7.08010    0    0    0
     179      179        2 -2.00000000   25.58820    5.78090    0.78670    0    0    0
     180      180        2 -2.00000000   25.58820    5.78090   10.22680    0    0    0
     181      181        1  2.00000000   26.70080    3.85390    0.00000    0    0    0
     182      182        1  2.00000000   26.70080    3.85390    9.44010    0    0    0
     183      183        1  2.00000000   28.92580    3.85390    3.14670    0    0    0
     184      184        1  2.17034000   28.92580    3.85390   12.58690    0    0    0
     185      185        1  2.00000000   31.15090    3.85390    6.29340    0    0    0
     186      186        1  2.00000000   32.26340    5.78090    3.14670    0    0    0
     187      187        1  2.17034000   32.26340    5.78090   12.58690    0    0    0
     188      188        1  2.00000000   27.81330    5.78090    6.29340    0    0    0
     189      189        1  2.00000000   30.03840    5.78090    0.00000    0    0    0
     190      190        1  2.00000000   30.03840    5.78090    9.44010    0    0    0
     191      191        2 -2.00000000   31.15090    3.85390    3.93340    0    0    0
     192      192        2 -2.00000000   31.15090    3.85390   13.37350    0    0    0
     193      193        2 -2.00000000   26.70080    3.85390    7.08010    0    0    0
     194      194        2 -2.00000000   28.92580    3.85390    0.78670    0    0    0
     195      195        2 -2.00000000   28.92580    3.85390   10.22680    0    0    0
     196      196        2 -2.00000000   27.81330    5.78090    3.93340    0    0    0
     197      197        2 -2.00000000   27.81330    5.78090   13.37350    0    0    0
     198      198        2 -2.00000000   30.03840    5.78090    7.08010    0    0    0
     199      199        2 -2.00000000   32.26340    5.78090    0.78670    0    0    0
     200      200        2 -2.00000000   32.26340    5.78090   10.22680    0    0    0
     201      201        1  2.00000000    0.00000    7.70780    0.00000    0    0    0
     202      202        1  2.00000000    0.00000    7.70780    9.44010    0    0    0
     203      203        1  2.00000000    2.22510    7.70780    3.14670    0    0    0
     204      204        1  2.17034000    2.22510    7.70780   12.58690    0    0    0
     205      205        1  2.00000000    4.45010    7.70780    6.29340    0    0    0
     206      206        1  2.00000000    5.56270    9.63480    3.14670    0    0    0
     207      207        1  2.17034000    5.56270    9.63480   12.58690    0    0    0
     208      208        1  2.00000000    1.11250    9.63480    6.29340    0    0    0
     209      209        1  2.00000000    3.33760    9.63480    0.00000    0    0    0
     210      210        1  2.00000000    3.33760    9.63480    9.44010    0    0    0
     211      211        2 -2.00000000    4.45010    7.70780    3.93340    0    0    0
     212      212        2 -2.00000000    4.45010    7.70780   13.37350    0    0    0
     213      213        2 -2.00000000    0.00000    7.70780    7.08010    0    0    0
     214      214        2 -2.00000000    2.22510    7.70780    0.78670    0    0    0
     215      215        2 -2.00000000    2.22510    7.70780   10.22680    0    0    0
     216      216        2 -2.00000000    1.11250    9.63480    3.93340    0    0    0
     217      217        2 -2.00000000    1.11250    9.63480   13.37350    0    0    0
     218      218        2 -2.00000000    3.33760    9.63480    7.08010    0    0    0
     219      219        2 -2.00000000    5.56270    9.63480    0.78670    0    0    0
     220      220        2 -2.00000000    5.56270    9.63480   10.22680    0    0    0
     221      221        1  2.00000000    6.67520    7.70780    0.00000    0    0    0
     222      222        1  2.00000000    6.67520    7.70780    9.44010    0    0    0
     223      223        1  2.00000000    8.90020    7.70780    3.14670    0    0    0
     224      224        1  2.17034000    8.90020    7.70780   12.58690    0    0    0
     225      225        1  2.00000000   11.12530    7.70780    6.29340    0    0    0
     226      226        1  2.00000000   12.23780    9.63480    3.14670    0    0    0
     227      227        1  2.17034000   12.23780    9.63480   12.58690    0    0    0
     228      228        1  2.00000000    7.78770    9.63480    6.29340    0    0    0
     229      229        1  2.00000000   10.01280    9.63480    0.00000    0    0    0
     230      230        1  2.00000000   10.01280    9.63480    9.44010    0    0    0
     231      231        2 -2.00000000   11.12530    7.70780    3.93340    0    0    0
     232      232        2 -2.00000000   11.12530    7.70780   13.37350    0    0    0
     233      233        2 -2.00000000    6.67520    7.70780    7.08010    0    0    0
     234      234        2 -2.00000000    8.90020    7.70780    0.78670    0    0    0
     235      235        2 -2.00000000    8.90020    7.70780   10.22680    0    0    0
     236      236        2 -2.00000000    7.78770    9.63480    3.93340    0    0    0
     237      237        2 -2.00000000    7.78770    9.63480   13.37350    0    0    0
     238      238        2 -2.00000000   10.01280    9.63480    7.08010    0    0    0
     239      239        2 -2.00000000   12.23780    9.63480    0.78670    0    0    0
     240      240        2 -2.00000000   12.23780    9.63480   10.22680    0    0    0
     241      241        1  2.00000000   13.35040    7.70780    0.00000    0    0    0
     242      242        1  2.00000000   13.35040    7.70780    9.44010    0    0    0
     243      243        1  2.00000000   15.57540    7.70780    3.14670    0    0    0
     244      244        1  2.17034000   15.57540    7.70780   12.58690    0    0    0
     245      245        1  2.00000000   17.80050    7.70780    6.29340    0    0    0
     246      246        1  2.00000000   18.91300    9.63480    3.14670    0    0    0
     247      247        1  2.17034000   18.91300    9.63480   12.58690    0    0    0
     248      248        1  2.00000000   14.46290    9.63480    6.29340    0    0    0
     249      249        1  2.00000000   16.68800    9.63480    0.00000    0    0    0
     250      250        1  2.00000000   16.68800    9.63480    9.44010    0    0    0
     251      251        2 -2.00000000   17.80050    7.70780    3.93340    0    0    0
     252      252        2 -2.00000000   17.80050    7.70780   13.37350    0    0    0
     253      253        2 -2.00000000   13.35040    7.70780    7.08010    0    0    0
     254      254        2 -2.00000000   15.57540    7.70780    0.78670    0    0    0
     255      255        2 -2.00000000   15.57540    7.70780   10.22680    0    0    0
     256      256        2 -2.00000000   14.46290    9.63480    3.93340    0    0    0
     257      257        2 -2.00000000   14.46290    9.63480   13.37350    0    0    0
     258      258        2 -2.00000000   16.68800    9.63480    7.08010    0    0    0
     259      259        2 -2.00000000   18.91300    9.63480    0.78670    0    0    0
     260      260        2 -2.00000000   18.91300    9.63480   10.22680    0    0    0
     261      261        1  2.00000000   20.02560    7.70780    0.00000    0    0    0
     262      262        1  2.00000000   20.02560    7.70780    9.44010    0    0    0
     263      263        1  2.00000000   22.25060    7.70780    3.14670    0    0    0
     264      264        1  2.17034000   22.25060    7.70780   12.58690    0    0    0
     265      265        1  2.00000000   24.47570    7.70780    6.29340    0    0    0
     266      266        1  2.00000000   25.58820    9.63480    3.14670    0    0    0
     267      267        1  2.17034000   25.58820    9.63480   12.58690    0    0    0
     268      268        1  2.00000000   21.13810    9.63480    6.29340    0    0    0
     269      269        1  2.00000000   23.36320    9.63480    0.00000    0    0    0
     270      270        1  2.00000000   23.36320    9.63480    9.44010    0    0    0
     271      271        2 -2.00000000   24.47570    7.70780    3.93340    0    0    0
     272      272        2 -2.00000000   24.47570    7.70780   13.37350    0    0    0
     273      273        2 -2.00000000   20.02560    7.70780    7.08010    0    0    0
     274      274        2 -2.00000000   22.25060    7.70780    0.78670    0    0    0
     275      275        2 -2.00000000   22.25060    7.70780   10.22680    0    0    0
     276      276        2 -2.00000000   21.13810    9.63480    3.93340    0    0    0
     277      277        2 -2.00000000   21.13810    9.63480   13.37350    0    0    0
     278      278        2 -2.00000000   23.36320    9.63480    7.08010    0    0    0
     279      279        2 -2.00000000   25.58820    9.63480    0.78670    0    0    0
     280      280        2 -2.00000000   25.58820    9.63480   10.22680    0    0    0
     281      281        1  2.00000000   26.70080    7.70780    0.00000    0    0    0
     282      282        1  2.00000000   26.70080    7.70780    9.44010    0    0    0
     283      283        1  2.00000000   28.92580    7.70780    3.14670    0    0    0
     284      284        1  2.17034000   28.92580    7.70780   12.58690    0    0    0
     285      285        1  2.00000000   31.15090    7.70780    6.29340    0    0    0
     286      286        1  2.00000000   32.26340    9.63480    3.14670    0    0    0
     287      287        1  2.17034000   32.26340    9.63480   12.58690    0    0    0
     288      288        1  2.00000000   27.81330    9.63480    6.29340    0    0    0
     289      289        1  2.00000000   30.03840    9.63480    0.00000    0    0    0
     290      290        1  2.00000000   30.03840    9.63480    9.44010    0    0    0
     291      291        2 -2.00000000   31.15090    7.70780    3.93340    0    0    0
     292      292        2 -2.00000000   31.15090    7.70780   13.37350    0    0    0
     293      293        2 -2.00000000   26.70080    7.70780    7.08010    0    0    0
     294      294        2 -2.00000000   28.92580    7.70780    0.78670    0    0    0
     295      295        2 -2.00000000   28.92580    7.70780   10.22680    0    0    0
     296      296        2 -2.00000000   27.81330    9.63480    3.93340    0    0    0
     297      297        2 -2.00000000   27.81330    9.63480   13.37350    0    0    0
     298      298        2 -2.00000000   30.03840    9.63480    7.08010    0    0    0
     299      299        2 -2.00000000   32.26340    9.63480    0.78670    0    0    0
     300      300        2 -2.00000000   32.26340    9.63480   10.22680    0    0    0
     301      301        1  2.00000000    0.00000   11.56180    0.00000    0    0    0
     302      302        1  2.00000000    0.00000   11.56180    9.44010    0    0    0
     303      303        1  2.00000000    2.22510   11.56180    3.14670    0    0    0
     304      304        1  2.17034000    2.22510   11.56180   12.58690    0    0    0
     305      305        1  2.00000000    4.45010   11.56180    6.29340    0    0    0
     306      306        1  2.00000000    5.56270   13.48870    3.14670    0    0    0
     307      307        1  2.17034000    5.56270   13.48870   12.58690    0    0    0
     308      308        1  2.00000000    1.11250   13.48870    6.29340    0    0    0
     309      309        1  2.00000000    3.33760   13.48870    0.00000    0    0    0
     310      310        1  2.00000000    3.33760   13.48870    9.44010    0    0    0
     311      311        2 -2.00000000    4.45010   11.56180    3.93340    0    0    0
     312      312        2 -2.00000000    4.45010   11.56180   13.37350    0    0    0
     313      313        2 -2.00000000    0.00000   11.56180    7.08010    0    0    0
     314      314        2 -2.00000000    2.22510   11.56180    0.78670    0    0    0
     315      315        2 -2.00000000    2.22510   11.56180   10.22680    0    0    0
     316      316        2 -2.00000000    1.11250   13.48870    3.93340    0    0    0
     317      317        2 -2.00000000    1.11250   13.48870   13.37350    0    0    0
     318      318        2 -2.00000000    3.33760   13.48870    7.08010    0    0    0
     319      319        2 -2.00000000    5.56270   13.48870    0.78670    0    0    0
     320      320        2 -2.00000000    5.56270   13.48870   10.22680    0    0    0
     321      321        1  2.00000000    6.67520   11.56180    0.00000    0    0    0
     322      322        1  2.00000000    6.67520   11.56180    9.44010    0    0    0
     323      323        1  2.00000000    8.90020   11.56180    3.14670    0    0    0
     324      324        1  2.17034000    8.90020   11.56180   12.58690    0    0    0
     325      325        1  2.00000000   11.12530   11.56180    6.29340    0    0    0
     326      326        1  2.00000000   12.23780   13.48870    3.14670    0    0    0
     327      327        1  2.17034000   12.23780   13.48870   12.58690    0    0    0