Created by /home/rramji/scripts/createLammpsInput.pl on Mon Aug 28 11:57:58 2023

          58 atoms
          62 bonds
          98 angles
         144 dihedrals
          96 impropers

           4 atom types
           4 bond types
           2 angle types
           2 dihedral types
           1 improper types

		   0.000000  24.669200 xlo xhi
		   0.000000  16.560800 ylo yhi
		   0.000000  18.305100 zlo zhi

Masses

    1 1.2011E+01 # C_R    
    2 1.5999E+01 # O_2    
    3 1.0080E+00 # H_     
    4 1.5999E+01 # O_R    

Pair Coeffs

    1    0.09510    3.47299 # C_R C_R 
    2    0.09570    3.03315 # O_2 O_2 
    3    0.01520    2.84642 # H_ H_ 
    4    0.09570    3.03315 # O_R O_R 

Bond Coeffs

    1      525     1.39 # C_R C_R 
    2      700     1.25 # O_2 C_R 
    3      350     1.02 # C_R H_ 
    4      525     1.35 # O_R C_R 

Angle Coeffs

    1       50      120 # X C_R X 
    2       50      120 # X O_R X 

Dihedral Coeffs

    1    3.125       -1        2 # X C_R C_R X 
    2     6.25       -1        2 # X O_R C_R X 

Improper Coeffs

    1  13.3333        0 # C_R X X X 

Atoms

       1        1        1  0.08620000    0.70980    0.51450   -0.72340    0    0    0
       2        1        1  0.39760000    1.65140    0.86070    0.34300    0    0    0
       3        1        2 -0.57000000    1.29660    1.64260    1.21590    0    0    0
       4        1        1 -0.15000000   -0.18980    1.47540   -1.20640    0    0    0
       5        1        3  0.15000000   -0.18890    2.44910   -0.78510    0    0    0
       6        1        1 -0.15000000   -1.08070    1.16370   -2.22730    0    0    0
       7        1        3  0.15000000   -1.75420    1.90020   -2.58600    0    0    0
       8        1        1 -0.15000000   -1.09130   -0.11510   -2.77620    0    0    0
       9        1        3  0.15000000   -1.77130   -0.35170   -3.55490    0    0    0
      10        1        1 -0.15000000   -0.21450   -1.08470   -2.29870    0    0    0
      11        1        3  0.15000000   -0.23050   -2.06140   -2.71230    0    0    0
      12        1        1 -0.15000000    0.67680   -0.77550   -1.27720    0    0    0
      13        1        3  0.15000000    1.32980   -1.52610   -0.91130    0    0    0
      14        1        1  0.08250000    5.59280   -0.73500    0.52060    0    0    0
      15        1        4 -0.16500000    6.87030   -1.24370    0.54710    0    0    0
      16        1        1 -0.15000000    4.99230   -0.54210   -0.72070    0    0    0
      17        1        3  0.15000000    5.52150   -0.78600   -1.60610    0    0    0
      18        1        1 -0.15000000    3.70640   -0.01830   -0.78340    0    0    0
      19        1        3  0.15000000    3.25890    0.14760   -1.73020    0    0    0
      20        1        1  0.08620000    3.00330    0.30410    0.39270    0    0    0
      21        1        1 -0.15000000    3.63040    0.09460    1.63290    0    0    0
      22        1        3  0.15000000    3.11240    0.34030    2.52580    0    0    0
      23        1        1 -0.15000000    4.91560   -0.42810    1.70190    0    0    0
      24        1        3  0.15000000    5.37610   -0.59290    2.64230    0    0    0
      25        1        1  0.08250000    9.72900   -0.28090    3.38430    0    0    0
      26        1        4 -0.16500000   10.68710   -0.00380    4.34230    0    0    0
      27        1        1 -0.15000000    9.62060   -1.59420    2.92830    0    0    0
      28        1        3  0.15000000   10.26780   -2.34170    3.30890    0    0    0
      29        1        1 -0.15000000    8.65930   -1.90740    1.97150    0    0    0
      30        1        3  0.15000000    8.56090   -2.89770    1.60760    0    0    0
      31        1        1  0.08250000    7.81700   -0.90360    1.49530    0    0    0
      32        1        1 -0.15000000    7.92710    0.41380    1.94840    0    0    0
      33        1        3  0.15000000    7.28690    1.16670    1.56570    0    0    0
      34        1        1 -0.15000000    8.88570    0.72620    2.90660    0    0    0
      35        1        3  0.15000000    8.97320    1.71690    3.27240    0    0    0
      36        1        1  0.08620000   12.85900    3.54360    4.60840    0    0    0
      37        1        1  0.39760000   13.61210    4.79510    4.69550    0    0    0
      38        1        2 -0.57000000   13.47370    5.63500    3.81530    0    0    0
      39        1        1 -0.15000000   12.52530    3.01240    3.35030    0    0    0
      40        1        3  0.15000000   12.82770    3.52580    2.47220    0    0    0
      41        1        1 -0.15000000   11.80730    1.82790    3.24430    0    0    0
      42        1        3  0.15000000   11.56940    1.42910    2.29140    0    0    0
      43        1        1  0.08250000   11.40440    1.16730    4.40570    0    0    0
      44        1        1 -0.15000000   11.72480    1.66970    5.66410    0    0    0
      45        1        3  0.15000000   11.41240    1.15060    6.53390    0    0    0
      46        1        1 -0.15000000   12.44200    2.85610    5.76400    0    0    0
      47        1        3  0.15000000   12.66610    3.24800    6.72340    0    0    0
      48        1        1 -0.15000000   16.24760    5.64980    7.94070    0    0    0
      49        1        3  0.15000000   16.89790    5.86600    8.75020    0    0    0
      50        1        1 -0.15000000   16.14300    4.34800    7.46000    0    0    0
      51        1        3  0.15000000   16.71740    3.57390    7.90270    0    0    0
      52        1        1 -0.15000000   15.29200    4.06340    6.39790    0    0    0
      53        1        3  0.15000000   15.23220    3.07090    6.03030    0    0    0
      54        1        1  0.08620000   14.52360    5.07860    5.80590    0    0    0
      55        1        1 -0.15000000   14.65160    6.38710    6.29320    0    0    0
      56        1        3  0.15000000   14.09130    7.16790    5.84380    0    0    0
      57        1        1 -0.15000000   15.50410    6.66950    7.35430    0    0    0
      58        1        3  0.15000000   15.58990    7.66310    7.71540    0    0    0


Bonds

       1        1        1        2 
       2        1        1        4 
       3        1        1       12 
       4        2        2        3 
       5        1        2       20 
       6        3        4        5 
       7        1        4        6 
       8        3        6        7 
       9        1        6        8 
      10        3        8        9 
      11        1        8       10 
      12        3       10       11 
      13        1       10       12 
      14        3       12       13 
      15        4       14       15 
      16        1       14       16 
      17        1       14       23 
      18        4       15       31 
      19        3       16       17 
      20        1       16       18 
      21        3       18       19 
      22        1       18       20 
      23        1       20       21 
      24        3       21       22 
      25        1       21       23 
      26        3       23       24 
      27        4       25       26 
      28        1       25       27 
      29        1       25       34 
      30        4       26       43 
      31        3       27       28 
      32        1       27       29 
      33        3       29       30 
      34        1       29       31 
      35        1       31       32 
      36        3       32       33 
      37        1       32       34 
      38        3       34       35 
      39        1       36       37 
      40        1       36       39 
      41        1       36       46 
      42        2       37       38 
      43        1       37       54 
      44        3       39       40 
      45        1       39       41 
      46        3       41       42 
      47        1       41       43 
      48        1       43       44 
      49        3       44       45 
      50        1       44       46 
      51        3       46       47 
      52        3       48       49 
      53        1       48       50 
      54        1       48       57 
      55        3       50       51 
      56        1       50       52 
      57        3       52       53 
      58        1       52       54 
      59        1       54       55 
      60        3       55       56 
      61        1       55       57 
      62        3       57       58 

Angles

       1        1        1       12       10 
       2        1        2        1       12 
       3        1        2       20       18 
       4        1        2       20       21 
       5        1        3        2        1 
       6        1        3        2       20 
       7        1        4        1        2 
       8        1        4        1       12 
       9        1        5        4        1 
      10        1        6        4        1 
      11        1        6        4        5 
      12        1        6        8       10 
      13        1        7        6        4 
      14        1        8        6        4 
      15        1        8        6        7 
      16        1        8       10       11 
      17        1        8       10       12 
      18        1        9        8        6 
      19        1        9        8       10 
      20        1       12       10       11 
      21        1       13       12        1 
      22        1       13       12       10 
      23        1       16       14       15 
      24        1       17       16       14 
      25        1       18       16       14 
      26        1       18       16       17 
      27        1       19       18       16 
      28        1       20        2        1 
      29        1       20       18       16 
      30        1       20       18       19 
      31        1       21       20       18 
      32        1       21       23       14 
      33        1       22       21       20 
      34        1       23       14       15 
      35        1       23       14       16 
      36        1       23       21       20 
      37        1       23       21       22 
      38        1       24       23       14 
      39        1       24       23       21 
      40        1       27       25       26 
      41        1       28       27       25 
      42        1       29       27       25 
      43        1       29       27       28 
      44        1       29       31       15 
      45        1       30       29       27 
      46        2       31       15       14 
      47        1       31       29       27 
      48        1       31       29       30 
      49        1       32       31       15 
      50        1       32       31       29 
      51        1       32       34       25 
      52        1       33       32       31 
      53        1       34       25       26 
      54        1       34       25       27 
      55        1       34       32       31 
      56        1       34       32       33 
      57        1       35       34       25 
      58        1       35       34       32 
      59        1       38       37       36 
      60        1       39       36       37 
      61        1       40       39       36 
      62        1       41       39       36 
      63        1       41       39       40 
      64        1       41       43       26 
      65        1       42       41       39 
      66        2       43       26       25 
      67        1       43       41       39 
      68        1       43       41       42 
      69        1       44       43       26 
      70        1       44       43       41 
      71        1       44       46       36 
      72        1       45       44       43 
      73        1       46       36       37 
      74        1       46       36       39 
      75        1       46       44       43 
      76        1       46       44       45 
      77        1       47       46       36 
      78        1       47       46       44 
      79        1       50       48       49 
      80        1       51       50       48 
      81        1       52       50       48 
      82        1       52       50       51 
      83        1       52       54       37 
      84        1       53       52       50 
      85        1       54       37       36 
      86        1       54       37       38 
      87        1       54       52       50 
      88        1       54       52       53 
      89        1       55       54       37 
      90        1       55       54       52 
      91        1       55       57       48 
      92        1       56       55       54 
      93        1       57       48       49 
      94        1       57       48       50 
      95        1       57       55       54 
      96        1       57       55       56 
      97        1       58       57       48 
      98        1       58       57       55 

Dihedrals

       1        1        1       12       10       11 
       2        1        2        1       12       10 
       3        1        2        1       12       13 
       4        1        2       20       18       16 
       5        1        2       20       18       19 
       6        1        3        2        1       12 
       7        1        3        2       20       18 
       8        1        3        2       20       21 
       9        1        4        1        2        3 
      10        1        4        1        2       20 
      11        1        4        1       12       10 
      12        1        4        1       12       13 
      13        1        4        6        8       10 
      14        1        5        4        1        2 
      15        1        5        4        1       12 
      16        1        6        4        1        2 
      17        1        6        4        1       12 
      18        1        6        8       10       11 
      19        1        6        8       10       12 
      20        1        7        6        4        1 
      21        1        7        6        4        5 
      22        1        7        6        8       10 
      23        1        8        6        4        1 
      24        1        8        6        4        5 
      25        1        8       10       12        1 
      26        1        8       10       12       13 
      27        1        9        8        6        4 
      28        1        9        8        6        7 
      29        1        9        8       10       11 
      30        1        9        8       10       12 
      31        1       13       12       10       11 
      32        1       17       16       14       15 
      33        1       18       16       14       15 
      34        1       18       20        2        1 
      35        1       19       18       16       14 
      36        1       19       18       16       17 
      37        1       20        2        1       12 
      38        1       20       18       16       14 
      39        1       20       18       16       17 
      40        1       20       21       23       14 
      41        1       21       20        2        1 
      42        1       21       20       18       16 
      43        1       21       20       18       19 
      44        1       21       23       14       15 
      45        1       21       23       14       16 
      46        1       22       21       20        2 
      47        1       22       21       20       18 
      48        1       22       21       23       14 
      49        1       23       14       16       17 
      50        1       23       14       16       18 
      51        1       23       21       20        2 
      52        1       23       21       20       18 
      53        1       24       23       14       15 
      54        1       24       23       14       16 
      55        1       24       23       21       20 
      56        1       24       23       21       22 
      57        1       27       29       31       15 
      58        1       28       27       25       26 
      59        1       29       27       25       26 
      60        2       29       31       15       14 
      61        1       30       29       27       25 
      62        1       30       29       27       28 
      63        1       30       29       31       15 
      64        2       31       15       14       16 
      65        2       31       15       14       23 
      66        1       31       29       27       25 
      67        1       31       29       27       28 
      68        1       31       32       34       25 
      69        2       32       31       15       14 
      70        1       32       31       29       27 
      71        1       32       31       29       30 
      72        1       32       34       25       26 
      73        1       32       34       25       27 
      74        1       33       32       31       15 
      75        1       33       32       31       29 
      76        1       33       32       34       25 
      77        1       34       25       27       28 
      78        1       34       25       27       29 
      79        1       34       32       31       15 
      80        1       34       32       31       29 
      81        1       35       34       25       26 
      82        1       35       34       25       27 
      83        1       35       34       32       31 
      84        1       35       34       32       33 
      85        1       39       36       37       38 
      86        1       39       41       43       26 
      87        1       40       39       36       37 
      88        1       41       39       36       37 
      89        2       41       43       26       25 
      90        1       42       41       39       36 
      91        1       42       41       39       40 
      92        1       42       41       43       26 
      93        2       43       26       25       27 
      94        2       43       26       25       34 
      95        1       43       41       39       36 
      96        1       43       41       39       40 
      97        1       43       44       46       36 
      98        2       44       43       26       25 
      99        1       44       43       41       39 
     100        1       44       43       41       42 
     101        1       44       46       36       37 
     102        1       44       46       36       39 
     103        1       45       44       43       26 
     104        1       45       44       43       41 
     105        1       45       44       46       36 
     106        1       46       36       37       38 
     107        1       46       36       39       40 
     108        1       46       36       39       41 
     109        1       46       44       43       26 
     110        1       46       44       43       41 
     111        1       47       46       36       37 
     112        1       47       46       36       39 
     113        1       47       46       44       43 
     114        1       47       46       44       45 
     115        1       50       52       54       37 
     116        1       51       50       48       49 
     117        1       52       50       48       49 
     118        1       52       54       37       36 
     119        1       52       54       37       38 
     120        1       53       52       50       48 
     121        1       53       52       50       51 
     122        1       53       52       54       37 
     123        1       54       37       36       39 
     124        1       54       37       36       46 
     125        1       54       52       50       48 
     126        1       54       52       50       51 
     127        1       54       55       57       48 
     128        1       55       54       37       36 
     129        1       55       54       37       38 
     130        1       55       54       52       50 
     131        1       55       54       52       53 
     132        1       55       57       48       49 
     133        1       55       57       48       50 
     134        1       56       55       54       37 
     135        1       56       55       54       52 
     136        1       56       55       57       48 
     137        1       57       48       50       51 
     138        1       57       48       50       52 
     139        1       57       55       54       37 
     140        1       57       55       54       52 
     141        1       58       57       48       49 
     142        1       58       57       48       50 
     143        1       58       57       55       54 
     144        1       58       57       55       56 

Impropers

       1        1        1        2        4       12 
       2        1        1       12        2        4 
       3        1        1        4       12        2 
       4        1        2        1        3       20 
       5        1        2       20        1        3 
       6        1        2        3       20        1 
       7        1        4        1        5        6 
       8        1        4        6        1        5 
       9        1        4        5        6        1 
      10        1        6        4        7        8 
      11        1        6        8        4        7 
      12        1        6        7        8        4 
      13        1        8        6        9       10 
      14        1        8       10        6        9 
      15        1        8        9       10        6 
      16        1       10        8       11       12 
      17        1       10       12        8       11 
      18        1       10       11       12        8 
      19        1       12        1       10       13 
      20        1       12       13        1       10 
      21        1       12       10       13        1 
      22        1       14       15       16       23 
      23        1       14       23       15       16 
      24        1       14       16       23       15 
      25        1       16       14       17       18 
      26        1       16       18       14       17 
      27        1       16       17       18       14 
      28        1       18       16       19       20 
      29        1       18       20       16       19 
      30        1       18       19       20       16 
      31        1       20        2       18       21 
      32        1       20       21        2       18 
      33        1       20       18       21        2 
      34        1       21       20       22       23 
      35        1       21       23       20       22 
      36        1       21       22       23       20 
      37        1       23       14       21       24 
      38        1       23       24       14       21 
      39        1       23       21       24       14 
      40        1       25       26       27       34 
      41        1       25       34       26       27 
      42        1       25       27       34       26 
      43        1       27       25       28       29 
      44        1       27       29       25       28 
      45        1       27       28       29       25 
      46        1       29       27       30       31 
      47        1       29       31       27       30 
      48        1       29       30       31       27 
      49        1       31       15       29       32 
      50        1       31       32       15       29 
      51        1       31       29       32       15 
      52        1       32       31       33       34 
      53        1       32       34       31       33 
      54        1       32       33       34       31 
      55        1       34       25       32       35 
      56        1       34       35       25       32 
      57        1       34       32       35       25 
      58        1       36       37       39       46 
      59        1       36       46       37       39 
      60        1       36       39       46       37 
      61        1       37       36       38       54 
      62        1       37       54       36       38 
      63        1       37       38       54       36 
      64        1       39       36       40       41 
      65        1       39       41       36       40 
      66        1       39       40       41       36 
      67        1       41       39       42       43 
      68        1       41       43       39       42 
      69        1       41       42       43       39 
      70        1       43       26       41       44 
      71        1       43       44       26       41 
      72        1       43       41       44       26 
      73        1       44       43       45       46 
      74        1       44       46       43       45 
      75        1       44       45       46       43 
      76        1       46       36       44       47 
      77        1       46       47       36       44 
      78        1       46       44       47       36 
      79        1       48       49       50       57 
      80        1       48       57       49       50 
      81        1       48       50       57       49 
      82        1       50       48       51       52 
      83        1       50       52       48       51 
      84        1       50       51       52       48 
      85        1       52       50       53       54 
      86        1       52       54       50       53 
      87        1       52       53       54       50 
      88        1       54       37       52       55 
      89        1       54       55       37       52 
      90        1       54       52       55       37 
      91        1       55       54       56       57 
      92        1       55       57       54       56 
      93        1       55       56       57       54 
      94        1       57       48       55       58 
      95        1       57       58       48       55 
      96        1       57       55       58       48 
