ITEM: TIMESTEP
20000
ITEM: NUMBER OF ATOMS
1280
ITEM: BOX BOUNDS pp pp pp
0.0000000000000000e+00 4.5735666000000002e+01
0.0000000000000000e+00 3.2339998999999999e+01
0.0000000000000000e+00 8.9056529999999995e+01
ITEM: ATOMS id type xu yu zu vx vy vz
850 5 1.54764 2.0236 4.0861 0 0 -0
851 4 3.7474 1.70504 5.93131 0 0 -0
853 4 7.19969 0.353906 8.31811 -0 0 -0
854 5 2.32451 0.824095 8.21293 -0 -0 -0
855 4 3.3763 0.52108 10.8551 0 -0 0
856 5 6.13174 0.993108 10.7996 0 0 0
861 4 0.527481 4.71421 4.25573 -0 0 -0
862 5 1.55144 7.41314 4.08956 0 0 -0
863 4 3.75058 7.09162 5.93949 -0 0 0
864 5 5.83256 5.11332 5.87177 -0 0 -0
865 4 7.21354 5.74398 8.32683 0 0 0
866 5 2.33008 6.21156 8.22372 0 -0 0
867 4 3.38553 5.92718 10.8788 -0 0 0
868 5 6.14151 6.38933 10.8014 -0 -0 0
922 5 9.16953 2.02442 4.09244 0 0 -0
923 4 11.3783 1.71983 5.94901 -0 0 0
926 5 9.95733 0.806291 8.21722 0 0 0
927 4 11.0119 0.55566 10.8946 0 -0 0
933 4 8.16454 4.71696 4.29276 -0 -0 0
934 5 9.17492 7.41425 4.09752 0 0 0
935 4 11.3819 7.10418 5.96307 0 -0 -0
938 5 9.97285 6.19109 8.23988 -0 -0 0
939 4 11.038 5.97014 10.9565 -0 -0 -0
873 4 0.531029 10.1039 4.25591 0 0 -0
874 5 1.55359 12.8035 4.08973 0 0 -0
875 4 3.75237 12.4774 5.94187 -0 -0 -0
876 5 5.83604 10.5022 5.87278 0 -0 -0
877 4 7.21934 11.1198 8.33362 -0 -0 -0
878 5 2.33041 11.603 8.22634 -0 0 0
879 4 3.39025 11.307 10.8827 -0 -0 0
880 5 6.13692 11.8122 10.7894 0 0 0
885 4 0.531279 15.4934 4.25427 0 -0 -0
888 5 5.83695 15.8953 5.87087 -0 -0 0
945 4 8.16906 10.1071 4.29542 0 0 -0
946 5 9.1785 12.8052 4.09643 0 0 -0
947 4 11.3845 12.4872 5.96596 0 0 0
950 5 9.97507 11.5852 8.24498 -0 -0 0
951 4 11.053 11.3384 10.9697 0 0 0
957 4 8.16861 15.4959 4.29292 0 0 0
796 1 10.4986 4.70913 20.6812 -0 0 0
815 2 10.3367 5.21239 21.8321 0 -0 -0
857 4 7.5717 1.73041 13.2072 -0 0 0
860 5 5.18997 2.0098 14.7838 0 -0 -0
869 4 7.58999 7.08862 13.2328 0 0 0
870 5 1.94434 5.00199 13.1416 -0 0 -0
871 4 4.22416 4.708 14.9119 0 -0 0
872 5 5.15788 7.40182 14.7243 0 -0 -0
942 5 9.51862 4.92288 13.1287 -0 -0 -0
797 1 9.06588 5.62477 21.6288 0 -0 0
895 4 4.21599 15.4917 14.9403 -0 0 -0
894 5 1.95384 15.8005 13.1471 0 -0 -0
954 5 9.51283 10.309 13.1276 0 0 0
966 5 9.52876 15.733 13.136 -0 0 0
425 1 10.7614 10.5705 20.3298 -0 0 -0
421 3 11.1328 14.7467 21.8638 -0 -0 0
444 2 10.5039 9.90401 21.4342 0 -0 -0
881 4 7.57688 12.4425 13.2426 0 0 -0
882 5 1.94507 10.3894 13.1429 -0 0 -0
883 4 4.2221 10.0987 14.9289 -0 0 -0
884 5 5.14344 12.7999 14.7136 0 0 -0
426 1 9.32838 10.4028 21.9646 -0 -0 -0
420 3 9.4995 14.2744 21.9276 0 0 0
389 2 10.1688 15.069 22.2573 0 -0 0
817 3 10.9409 3.61229 28.3711 0 -0 0
816 3 9.2818 3.12243 28.2039 -0 -0 0
798 2 9.93103 3.99759 28.2303 -0 -0 0
800 2 9.92012 4.86822 26.9221 -0 -0 0
818 3 9.4449 4.06071 30.278 0 -0 -0
825 3 9.39366 3.273 25.5456 -0 -0 -0
799 2 9.62264 4.82285 29.5193 -0 0 -0
821 3 8.92671 5.29629 26.7878 0 -0 -0
833 3 7.87326 6.00357 31.5553 -0 -0 -0
832 3 9.05349 7.20965 30.9051 0 -0 0
806 2 8.12562 6.66601 30.7273 0 -0 0
823 3 8.64489 6.51439 28.6614 0 -0 -0
822 3 7.44182 5.34979 29.3018 -0 0 -0
801 2 8.41034 5.82106 29.4691 0 0 0
824 3 11.1175 3.75104 25.6185 0 0 0
802 2 10.0884 4.11029 25.6116 -0 0 -0
830 3 3.89162 6.40891 33.3766 0 -0 -0
839 3 6.0205 7.91123 33.0616 -0 -0 -0
819 3 10.5477 5.33133 29.791 -0 0 -0
843 3 4.82202 7.34555 30.3489 -0 0 0
820 3 10.5364 5.75957 27.0395 0 0 -0
805 2 3.90379 7.46889 33.1228 0 0 0
809 2 5.16763 7.91176 32.3828 0 0 -0
812 2 5.58097 7.16832 31.1109 -0 0 0
810 2 6.92242 7.62206 30.5554 0 -0 0
831 3 3.09574 7.72563 32.4378 0 0 0
840 3 6.85325 7.85242 29.4923 0 -0 -0
813 2 10.5302 4.3356 23.086 -0 -0 0
807 2 9.94922 4.98926 24.3258 -0 -0 -0
834 3 8.86936 5.10678 24.2353 -0 -0 -0
844 3 9.99052 3.4225 22.8348 0 0 0
835 3 10.4454 5.9585 24.3751 -0 0 -0
383 2 10.2761 15.0989 23.8371 -0 0 -0
411 3 10.2436 14.0759 24.2118 -0 0 -0
450 3 10.7758 9.15646 26.1154 -0 0 -0
448 3 11.2907 11.1163 27.9928 -0 0 0
451 3 10.8872 8.60932 28.5014 0 0 0
838 3 4.99322 8.89367 31.9429 -0 -0 -0
194 3 11.2528 15.7456 31.7393 -0 -0 -0
396 3 8.85319 15.0932 26.3404 0 0 -0
400 3 8.21196 15.6235 23.918 -0 -0 0
464 3 10.419 8.35054 23.6798 0 0 0
376 2 9.08807 16.0905 25.9687 0 -0 -0
410 3 11.2006 15.5809 24.155 -0 -0 0
378 2 9.11419 15.987 24.4099 0 0 -0
452 3 10.5775 9.58218 29.8471 -0 -0 0
430 2 11.3998 9.26389 29.2063 0 0 0
826 3 3.37711 7.3433 35.2149 -0 0 0
836 3 3.03757 10.0699 36.2695 -0 0 0
846 3 3.02683 12.6197 35.9785 0 -0 0
811 2 1.49198 11.2885 35.3794 0 0 0
808 2 2.09762 9.84934 35.7635 -0 0 0
847 3 1.96659 13.1758 34.6943 0 -0 -0
842 3 1.05075 11.7015 36.2866 0 -0 -0
814 2 2.54039 12.3201 35.0502 -0 -0 -0
848 3 3.28325 11.9542 34.3414 0 0 -0
841 3 0.824201 11.2373 34.5195 -0 0 -0
837 3 1.40313 9.23132 36.3326 -0 -0 -0
827 3 4.62991 8.49629 34.9165 0 0 -0
803 2 3.67682 8.13596 34.5293 -0 -0 0
804 2 2.57969 9.21489 34.4455 -0 0 -0
829 3 2.92796 9.87304 33.6494 0 0 0
828 3 1.70357 8.71409 34.0335 0 0 -0
886 5 1.55246 18.1939 4.08765 -0 0 -0
887 4 3.75122 17.8661 5.93865 -0 0 -0
889 4 7.21805 16.4967 8.33482 -0 -0 0
890 5 2.32818 16.9981 8.22384 -0 -0 -0
891 4 3.39176 16.6755 10.8711 -0 0 -0
892 5 6.1304 17.2232 10.7801 -0 -0 0
897 4 0.528479 20.883 4.25275 -0 -0 0
898 5 1.5488 23.5842 4.08512 0 -0 -0
899 4 3.74845 23.2596 5.93196 -0 -0 0
900 5 5.83337 21.2888 5.86585 0 0 0
901 4 7.20887 21.887 8.32637 0 -0 -0
902 5 2.32422 22.3909 8.21591 0 0 -0
903 4 3.38491 22.047 10.8515 0 -0 0
904 5 6.12221 22.605 10.7773 -0 -0 0
958 5 9.1776 18.1954 4.09324 -0 0 0
959 4 11.3823 17.8733 5.96176 -0 0 -0
962 5 9.97 16.9862 8.24409 -0 -0 -0
963 4 11.0589 16.6881 10.9481 -0 0 0
969 4 8.16437 20.8844 4.28771 0 0 -0
970 5 9.17292 23.585 4.09027 0 0 0
971 4 11.3779 23.2671 5.95282 -0 -0 0
974 5 9.95999 22.3808 8.23249 0 -0 -0
975 4 11.0477 22.0371 10.903 0 -0 -0
849 4 0.52429 -0.67585 4.25475 0 0 0
852 5 5.82742 -0.27391 5.8658 -0 -0 -0
909 4 0.525071 26.2735 4.25342 -0 -0 0
910 5 1.54606 28.9744 4.08368 0 0 -0
911 4 3.74635 28.6543 5.92696 0 -0 -0
912 5 5.82713 26.6783 5.86136 0 -0 -0
913 4 7.1961 27.2903 8.31582 -0 0 0
914 5 2.32068 27.7783 8.20745 0 -0 0
915 4 3.37376 27.4417 10.8394 -0 0 0
916 5 6.11836 27.9674 10.7841 0 -0 -0
921 4 8.16029 -0.674192 4.28827 0 -0 0
981 4 8.16061 26.2744 4.2856 0 -0 -0
982 5 9.16837 28.975 4.08831 -0 -0 -0
983 4 11.3765 28.6668 5.94291 0 0 0
986 5 9.94927 27.7649 8.21037 0 0 -0
987 4 11.016 27.4407 10.8633 0 -0 0
338 2 10.3608 21.5278 21.6159 0 0 0
319 1 10.8638 21.8742 20.4487 -0 -0 -0
893 4 7.55282 17.8019 13.2419 -0 -0 -0
896 5 5.14628 18.1975 14.7339 0 0 -0
905 4 7.53048 23.1921 13.2268 0 -0 0
906 5 1.96503 21.2241 13.1534 -0 -0 -0
907 4 4.21342 20.8855 14.94 -0 -0 0
908 5 5.17014 23.5918 14.7832 0 -0 -0
978 5 9.55798 21.1882 13.1519 0 -0 0
320 1 9.28471 22.3857 21.4845 -0 0 0
373 1 8.66897 16.8049 21.5645 -0 0 0
391 2 9.91032 16.3822 21.4374 0 -0 -0
372 1 10.0692 16.2292 20.0646 -0 -0 -0
917 4 7.53537 28.6459 13.2009 -0 0 -0
858 5 1.95024 -0.352799 13.1426 0 0 0
859 4 4.21717 -0.678019 14.8954 0 -0 0
918 5 1.96288 26.6293 13.151 -0 0 0
919 4 4.21341 26.277 14.9133 0 0 0
920 5 5.20106 28.9732 14.8245 -0 -0 0
990 5 9.55913 26.6209 13.1456 -0 -0 -0
930 5 9.53378 -0.395282 13.1288 -0 -0 -0
397 3 10.0596 16.4602 26.2967 0 0 0
381 2 8.70364 22.8155 33.1755 -0 -0 -0
419 3 7.23004 20.9729 31.4671 -0 -0 -0
406 3 7.73982 23.3134 33.0692 -0 0 -0
388 2 8.29739 20.8325 31.6378 0 -0 0
398 3 8.76202 19.2869 27.9333 0 0 0
195 3 11.2299 17.0998 30.6113 -0 -0 -0
399 3 9.90097 18.0551 28.4649 -0 -0 -0
386 2 8.85894 20.2704 30.2784 0 -0 -0
414 3 8.5374 22.896 31.0156 0 0 -0
385 2 8.9116 22.221 31.7853 0 0 -0
407 3 9.42793 23.6265 33.2515 -0 -0 0
409 3 7.54981 18.6351 30.3081 -0 0 0
374 2 7.90684 16.9928 26.4719 0 -0 0
394 3 6.9238 17.6167 28.2156 -0 0 -0
382 2 8.60288 18.7942 30.0761 0 0 -0
416 3 9.90457 20.5548 30.1605 -0 0 0
377 2 8.87274 18.4035 28.5621 0 -0 -0
408 3 9.20615 18.1964 30.7594 -0 -0 -0
415 3 9.98285 22.1144 31.6145 -0 0 0
375 2 7.91993 17.222 28.0157 -0 -0 0
392 3 7.88237 17.8953 25.8611 0 0 0
358 3 10.3271 19.7934 23.5637 -0 0 0
401 3 9.18515 16.9734 23.9517 -0 0 0
347 3 11.2531 21.0093 25.4281 -0 -0 0
393 3 7.01651 16.4098 26.2364 0 -0 -0
336 2 11.3481 21.6398 22.783 0 0 -0
368 3 11.069 22.4053 23.5071 -0 -0 -0
330 2 11.3188 20.2368 23.4739 0 -0 -0
395 3 8.14482 16.3685 28.6554 -0 0 -0
402 3 8.52842 22.7582 35.2962 0 -0 -0
380 2 10.2648 21.6233 34.7893 -0 -0 0
413 3 9.82663 19.5603 35.4241 -0 -0 -0
418 3 8.77988 21.1291 37.0971 0 -0 -0
379 2 8.81841 22.0403 34.5289 -0 0 -0
403 3 8.18309 21.1557 34.4844 -0 0 0
384 2 10.3473 20.4286 35.8279 0 -0 0
387 2 9.76966 20.7314 37.3211 -0 -0 -0
417 3 10.2216 21.4971 37.9516 0 0 -0
404 3 10.8968 22.4318 35.1567 -0 -0 0
424 3 8.60559 19.5572 38.8647 0 0 0
390 2 9.42812 19.448 38.1578 0 -0 -0
423 3 9.06825 18.636 37.526 -0 0 -0
405 3 10.6925 21.2344 33.8653 -0 0 -0
422 3 10.3508 19.1481 38.6546 -0 0 -0
412 3 11.3795 20.2285 36.1152 -0 -0 0
925 4 14.8288 0.333596 8.31352 0 0 -0
928 5 13.7717 0.994066 10.7812 0 -0 -0
936 5 13.4571 5.11652 5.84632 -0 -0 0
937 4 14.8476 5.72362 8.30719 0 -0 -0
940 5 13.7973 6.39393 10.7652 0 0 0
994 5 16.8071 2.02395 4.07101 0 -0 0
995 4 18.997 1.72164 5.94263 0 -0 -0
997 4 22.4461 0.332531 8.30218 -0 -0 0
998 5 17.5914 0.784479 8.19972 -0 0 -0
999 4 18.6288 0.586158 10.8962 -0 0 -0
1000 5 21.4037 0.988272 10.7705 -0 0 -0
1005 4 15.7948 4.71654 4.28906 0 0 -0
1006 5 16.8142 7.41403 4.07419 0 0 0
1007 4 19.0033 7.10778 5.95294 0 -0 -0
1008 5 21.0927 5.13216 5.82665 -0 -0 0
1009 4 22.4638 5.72345 8.2935 -0 -0 -0
1010 5 17.6127 6.16694 8.21691 -0 -0 -0
1011 4 18.6554 6.00647 10.9585 0 -0 0
1012 5 21.4325 6.38608 10.7552 -0 0 0
948 5 13.4621 10.5044 5.84438 -0 -0 0
949 4 14.856 11.0908 8.31284 -0 -0 -0
952 5 13.7967 11.8384 10.7424 0 0 -0
960 5 13.4638 15.8986 5.84385 -0 -0 0
1017 4 15.8007 10.107 4.28983 -0 -0 -0
1018 5 16.8192 12.8056 4.07037 -0 -0 0
1019 4 19.0072 12.4909 5.95235 -0 -0 -0
1020 5 21.0983 10.5192 5.823 0 0 -0
1021 4 22.4729 11.0902 8.29666 -0 0 -0
1022 5 17.6167 11.5609 8.21788 0 0 0
1023 4 18.6729 11.3786 10.9686 0 -0 0
1024 5 21.4362 11.8323 10.7307 0 -0 -0
1029 4 15.8 15.4956 4.28742 -0 -0 0
1032 5 21.1 15.9128 5.82257 0 -0 -0
266 1 18.2463 4.5441 20.1778 0 0 -0
285 2 18.2295 5.2793 21.2516 -0 -0 0
929 4 15.1733 1.73243 13.213 0 -0 0
932 5 12.7579 2.02002 14.7117 0 -0 -0
941 4 15.1812 7.05736 13.2414 0 -0 0
943 4 11.7706 4.7328 15.0646 -0 0 -0
944 5 12.7001 7.41342 14.5954 -0 0 0
1001 4 22.7634 1.69614 13.2193 0 -0 0
1004 5 20.3838 2.02236 14.7313 0 0 0
1013 4 22.7697 7.01522 13.249 0 -0 0
1014 5 17.1631 4.92321 13.1172 -0 -0 -0
1015 4 19.3431 4.74139 15.1136 -0 0 0
1016 5 20.3251 7.41741 14.6145 -0 0 0
267 1 17.0303 5.21155 21.8295 0 0 0
315 3 20.1269 5.17828 21.9416 0 0 -0
1027 4 19.3196 10.1142 15.1764 0 0 0
179 2 18.2194 15.7078 21.0314 0 0 0
177 2 19.3245 16.0871 22.1292 0 0 0
1038 5 17.1915 15.7466 13.125 -0 -0 -0
956 5 12.6739 12.8007 14.5798 -0 0 0
232 2 18.5062 10.9303 21.3489 -0 -0 -0
214 1 17.3324 11.5802 21.5419 -0 0 0
1028 5 20.3013 12.8054 14.6012 0 0 -0
1039 4 19.3139 15.4873 15.1896 0 0 0
1026 5 17.1684 10.3132 13.115 0 -0 -0
955 4 11.7544 10.1081 15.1224 0 0 0
953 4 15.1557 12.3808 13.2582 -0 0 0
213 1 18.5559 10.6594 20.0521 0 -0 -0
1025 4 22.7427 12.3301 13.2677 -0 -0 -0
967 4 11.7464 15.4863 15.1354 -0 0 -0
208 3 20.0128 15.2467 22.0388 0 0 -0
160 1 18.6167 15.7975 19.7383 0 -0 0
262 3 19.3564 9.08958 21.9957 0 -0 0
261 3 17.6707 9.00336 21.9374 -0 0 0
473 3 12.5735 9.62579 22.0555 -0 -0 -0
230 2 18.4719 9.67899 22.237 0 0 0
272 2 20.0006 5.04262 24.8501 0 0 0
277 2 18.8581 5.49854 23.8379 0 -0 -0
294 3 20.7323 5.84048 24.9767 0 -0 -0
260 3 17.9345 5.62311 30.836 -0 -0 0
290 3 19.0059 5.45761 26.6166 -0 0 0
270 2 19.5275 4.58736 26.2181 0 0 0
268 2 20.7804 4.12252 26.9814 0 -0 -0
292 3 22.3713 3.20895 29.0725 -0 0 -0
288 3 20.109 4.42666 28.9537 -0 -0 -0
295 3 20.5688 4.25 24.3632 -0 0 -0
305 3 18.8851 6.58369 23.7388 0 -0 -0
291 3 18.8014 3.78385 26.0941 -0 -0 -0
256 3 19.843 5.56388 32.5524 -0 0 0
229 2 18.0201 6.31024 31.6778 0 0 -0
280 2 20.3987 0.562127 30.1492 0 -0 -0
226 2 18.9055 5.93004 32.9709 -0 0 -0
304 3 17.9026 5.09043 24.1673 -0 -0 0
302 3 20.1095 2.44679 30.8563 -0 -0 0
248 3 18.3383 3.86973 33.2072 -0 0 0
462 3 11.9841 7.667 30.5782 -0 0 0
249 3 18.3938 6.93237 28.977 -0 -0 -0
287 3 21.4919 4.91744 27.2048 0 0 -0
276 2 21.0125 2.01502 30.4246 0 0 0
269 2 20.353 3.54859 28.3557 0 0 0
303 3 21.8086 1.92624 31.1638 0 -0 -0
463 3 11.7242 7.63038 23.0521 -0 -0 0
286 3 21.3413 3.35636 26.4462 0 -0 -0
310 3 19.5248 0.573938 29.4978 0 0 -0
309 3 18.5586 0.391596 32.0316 0 0 -0
271 2 21.4317 2.65724 29.0418 0 0 0
289 3 19.3814 3.06747 28.2437 0 -0 0
283 2 19.1621 4.92114 22.3787 0 -0 0
293 3 21.6929 1.97039 28.2368 0 0 -0
223 2 18.6056 7.80527 29.5945 0 -0 -0
227 2 18.9023 7.43769 31.0449 0 -0 -0
314 3 19.1769 3.83539 22.4737 -0 -0 -0
472 3 14.1402 7.53742 31.9709 -0 -0 0
240 3 20.721 7.46912 29.218 -0 -0 -0
454 3 12.429 7.67936 25.2 -0 0 0
634 3 22.6424 7.24715 24.2629 -0 -0 0
235 3 19.7709 8.0171 26.7844 -0 0 -0
845 3 11.5742 4.09619 23.288 -0 -0 -0
765 3 21.9646 15.1871 27.1572 0 -0 -0
236 3 21.0893 8.84004 27.2632 0 -0 -0
469 3 13.9634 9.93672 30.8547 0 0 0
467 3 15.0609 9.93218 33.2249 0 0 -0
219 2 19.7527 10.1447 24.3909 -0 -0 0
185 3 16.1972 14.9102 24.8026 -0 0 -0
436 2 11.4691 8.58688 23.5083 0 -0 0
764 3 22.2113 14.581 24.8162 -0 0 0
474 3 11.5753 10.6878 23.1147 -0 -0 -0
34 3 21.5691 12.6319 31.7112 -0 0 -0
164 2 17.1718 15.0271 25.2764 -0 0 -0
183 3 15.1846 13.6564 26.9762 0 -0 0
9 2 21.9953 11.6655 31.9807 0 -0 0
173 2 13.0167 16.0189 30.3965 0 0 -0
215 2 19.3426 10.0386 27.0743 0 -0 -0
250 3 17.7887 8.51439 29.4609 -0 -0 0
257 3 18.917 8.28885 31.7257 -0 -0 -0
176 2 13.9997 15.2237 31.1977 -0 -0 0
216 2 20.0395 8.75211 27.5431 -0 -0 0
188 3 19.1936 14.582 24.7616 -0 0 -0
189 3 17.9568 14.1241 23.5449 -0 0 0
241 3 20.1994 10.8012 23.6442 0 -0 -0
461 3 13.2537 8.13465 29.3648 -0 0 -0
238 3 19.3409 11.6727 25.6652 -0 0 -0
242 3 20.2205 9.16248 24.3232 0 0 -0
182 3 15.9874 15.1095 27.6413 0 -0 -0
224 2 18.3603 9.93779 23.7414 -0 0 -0
207 3 13.5215 14.303 31.532 0 -0 0
184 3 17.1955 16.0004 25.7665 -0 -0 0
441 2 13.6566 8.41726 32.3952 -0 -0 0
439 2 13.1439 9.32483 31.2318 -0 0 -0
252 3 17.7589 10.8206 23.9584 0 -0 0
766 3 22.8215 13.6208 27.1211 0 0 0
446 3 13.5742 10.5047 26.6445 -0 -0 -0
237 3 20.9872 11.0108 25.8317 -0 0 -0
33 3 21.3769 11.0268 31.3501 0 -0 -0
174 2 15.1388 14.8719 30.1661 0 0 0
435 2 12.4748 8.48076 30.0442 0 -0 0
166 2 18.2792 14.8875 24.253 0 -0 -0
204 3 16.0511 15.4451 30.3318 0 0 -0
186 3 17.3145 13.4669 29.0203 0 0 -0
202 3 12.4728 15.4217 29.6646 0 0 -0
233 3 19.3347 10.7744 27.8784 -0 0 0
218 2 19.9767 8.22412 28.9647 0 0 -0
239 3 20.1836 9.14326 29.5129 -0 -0 0
187 3 16.4045 12.1085 28.3925 -0 0 -0
170 2 15.2653 13.3721 29.7698 -0 0 0
197 3 14.2361 13.1321 29.5026 -0 0 0
165 2 16.3343 13.165 28.6512 0 -0 0
196 3 15.6936 12.9045 30.6564 -0 0 0
163 2 16.1092 14.0551 27.3934 -0 -0 0
217 2 19.9276 10.7608 25.7761 0 -0 -0
234 3 18.3292 9.7023 26.855 -0 0 -0
181 3 18.2365 13.9248 26.7811 0 -0 0
162 2 17.2477 13.9074 26.3227 -0 -0 -0
251 3 17.9109 9.0464 24.179 0 0 -0
180 3 17.3273 12.9497 25.8083 -0 -0 -0
428 2 12.0773 10.4279 28.3021 -0 -0 -0
445 3 13.2348 8.89999 27.3348 -0 -0 0
429 2 11.7582 9.56903 25.8857 0 -0 0
427 2 12.7999 9.86182 27.0631 -0 0 0
431 2 12.361 8.67921 24.7714 -0 0 -0
447 3 12.7231 10.9553 29.0043 -0 -0 0
453 3 13.3743 8.9113 24.4434 -0 -0 -0
442 2 11.6007 9.77146 22.5251 -0 -0 0
47 3 19.6158 11.1806 33.097 0 0 0
449 3 11.5077 10.5639 25.5174 -0 -0 0
221 2 16.238 3.95939 35.161 -0 -0 0
254 3 14.5562 3.74595 36.3358 -0 0 0
245 3 16.8563 3.8404 36.0507 -0 -0 0
253 3 14.9842 5.44066 36.1611 0 -0 -0
225 2 14.889 4.49864 35.6211 -0 -0 -0
243 3 16.9251 5.91474 34.9893 0 -0 0
264 3 11.5536 5.28674 34.4136 -0 0 0
316 3 17.1201 1.48509 38.4722 -0 0 0
228 2 13.6608 4.44606 34.5829 0 -0 0
259 3 13.4228 3.40094 34.3848 -0 -0 -0
265 3 12.6955 6.17606 35.4429 0 -0 0
263 3 12.0025 4.66097 35.9674 -0 0 -0
231 2 12.3965 5.18644 35.0975 0 -0 -0
258 3 13.9977 4.9342 33.6684 0 -0 -0
220 2 16.859 5.05686 34.3202 -0 -0 0
244 3 16.2169 5.21662 33.454 0 -0 -0
284 2 17.7748 0.686712 38.1229 -0 -0 -0
247 3 18.9981 4.57844 34.6347 0 -0 0
246 3 16.189 2.99779 34.6501 -0 -0 -0
311 3 17.0873 0.78726 36.129 0 -0 -0
317 3 18.7147 1.13675 37.803 -0 -0 0
255 3 19.0949 6.85764 33.511 -0 0 -0
222 2 18.3004 4.77068 33.8196 -0 0 0
281 2 17.1187 0.0463995 36.9279 -0 0 -0
125 2 19.5123 14.5904 37.6907 0 -0 -0
455 3 14.7528 9.57108 36.439 -0 0 0
456 3 14.9924 10.9868 35.4059 0 -0 0
438 2 14.4903 9.0678 33.5646 0 -0 0
440 2 12.9763 12.7001 38.6294 0 0 0
470 3 12.0278 12.9892 38.1768 0 0 0
443 2 13.5799 14.0149 39.2464 -0 -0 0
153 3 18.3742 16.1397 36.6279 0 0 0
468 3 15.1318 8.32049 34.0317 0 0 0
122 2 18.9398 15.9988 37.5489 -0 0 -0
42 3 21.8097 10.3201 33.6278 -0 -0 -0
477 3 13.0697 14.1308 40.2027 -0 0 0
465 3 14.4724 12.7937 37.0047 -0 -0 0
475 3 13.4622 14.7833 38.4824 -0 0 -0
459 3 12.8175 8.86051 34.8713 -0 -0 -0
476 3 14.63 13.8569 39.492 0 -0 0
157 3 18.6712 13.924 37.8817 0 0 -0
471 3 12.7093 11.8915 39.3099 0 -0 -0
466 3 14.6883 11.415 38.0428 -0 -0 -0
460 3 12.9068 10.4139 33.9776 -0 0 -0
458 3 12.5252 11.4908 35.9781 0 0 0
19 2 19.8645 11.2372 35.2405 0 -0 0
51 3 19.5754 10.1868 35.2065 -0 -0 0
46 3 20.1245 12.8095 33.7783 -0 0 0
52 3 18.9993 11.8796 35.4046 -0 0 -0
53 3 20.6142 11.5298 35.9757 0 0 0
16 2 20.2045 11.724 33.8361 0 0 -0
434 2 13.4687 9.67082 34.5435 0 -0 0
437 2 13.9285 12.0485 37.5851 0 -0 -0
432 2 14.2484 10.2921 35.7958 -0 0 -0
433 2 13.2068 11.0378 36.698 -0 0 -0
41 3 22.252 11.9747 34.0299 -0 0 -0
457 3 12.5874 10.3294 37.2481 0 0 -0
13 2 21.5958 11.366 33.4078 -0 -0 -0
159 3 19.8749 14.0933 36.791 -0 0 -0
158 3 20.2553 14.5132 38.4845 -0 0 0
961 4 14.8554 16.46 8.31781 0 0 0
964 5 13.7877 17.267 10.7279 -0 -0 -0
972 5 13.46 21.2949 5.84413 0 0 0
973 4 14.8442 21.851 8.31583 0 -0 0
976 5 13.77 22.6546 10.7302 -0 0 0
1030 5 16.8178 18.1961 4.06652 0 -0 -0
1031 4 19.0048 17.8762 5.94689 0 -0 0
1033 4 22.4738 16.4583 8.3012 0 -0 -0
1034 5 17.6108 16.9635 8.21652 -0 0 -0
1035 4 18.6819 16.7253 10.942 0 -0 0
1036 5 21.4292 17.2652 10.7143 -0 -0 0
1041 4 15.7941 20.8837 4.28462 0 -0 0
1042 5 16.8111 23.5856 4.06535 -0 -0 -0
1043 4 18.9989 23.2691 5.93989 0 0 0
1044 5 21.0954 21.3089 5.82442 0 0 0
1045 4 22.4639 21.8487 8.30054 0 -0 0
1046 5 17.5979 22.3595 8.20782 0 0 0
1047 4 18.6733 22.0668 10.894 0 0 0
1048 5 21.4109 22.6549 10.7156 -0 -0 -0
924 5 13.4528 -0.266357 5.84937 0 -0 0
984 5 13.4538 26.6876 5.84718 0 0 -0
985 4 14.8258 27.2623 8.31621 0 -0 0
988 5 13.7531 27.996 10.76 0 -0 0
993 4 15.7886 -0.674804 4.28878 0 -0 0
996 5 21.0875 -0.250747 5.83194 0 0 -0
1053 4 15.7886 26.2737 4.28656 -0 -0 -0
1054 5 16.8053 28.975 4.06609 -0 0 -0
1055 4 18.9949 28.6678 5.93514 -0 0 -0
1056 5 21.0883 26.7024 5.82968 0 0 -0
1057 4 22.4452 27.2603 8.30388 -0 0 0
1058 5 17.5823 27.7442 8.19177 -0 -0 0
1059 4 18.6377 27.467 10.8598 -0 0 -0
1060 5 21.3883 27.9943 10.7467 0 0 -0
107 1 18.493 21.9946 20.5754 -0 -0 0
126 2 17.7792 22.0101 21.762 -0 0 0
965 4 15.1292 17.7265 13.2566 -0 -0 0
968 5 12.6811 18.1905 14.6092 -0 0 0
977 4 15.1121 23.1156 13.239 -0 0 -0
979 4 11.7522 20.8683 15.1122 0 -0 0
980 5 12.7276 23.5803 14.6965 -0 0 -0
1037 4 22.7171 17.6725 13.2662 0 -0 -0
1040 5 20.3117 18.1957 14.634 0 0 0
1049 4 22.7024 23.064 13.2486 -0 -0 -0
1050 5 17.2216 21.2085 13.1434 -0 0 -0
1051 4 19.3296 20.8667 15.1632 -0 -0 0
1052 5 20.358 23.5852 14.7176 -0 -0 0
161 1 17.2399 16.5721 21.0225 -0 0 0
108 1 17.0953 23.0322 21.5656 -0 -0 0
209 3 19.8316 16.9749 21.7514 -0 -0 0
1062 5 17.2068 26.6543 13.1438 0 0 -0
991 4 11.7883 26.2608 14.9731 -0 -0 0
1064 5 20.4038 28.9736 14.8147 -0 0 0
1002 5 17.17 -0.373965 13.1251 0 0 0
1003 4 19.3851 -0.664799 14.9709 -0 -0 -0
989 4 15.1266 28.6161 13.214 -0 -0 0
1061 4 22.7163 28.5731 13.2233 0 -0 -0
992 5 12.7769 28.9699 14.7933 0 0 -0
931 4 11.8011 -0.668396 14.9313 -0 0 0
1063 4 19.3729 26.258 15.0198 -0 -0 0
356 3 16.6581 20.2047 29.649 0 0 0
156 3 18.024 22.7007 23.764 0 0 -0
133 3 20.7461 17.4823 29.6546 0 -0 0
130 3 22.0515 18.639 27.618 -0 -0 0
110 2 20.9941 18.7057 27.8739 -0 -0 -0
134 3 19.5974 18.7742 29.6347 0 -0 0
143 3 21.6453 20.3024 30.0834 0 -0 -0
340 3 12.7117 18.5507 27.6801 0 -0 -0
198 3 17.871 16.7992 23.4149 -0 0 -0
151 3 21.1669 18.0418 32.1002 0 -0 0
113 2 19.78 21.1777 24.9777 -0 -0 0
136 3 20.5319 21.9253 24.725 0 0 -0
357 3 11.985 19.6295 22.8611 0 -0 -0
332 2 18.2627 23.168 28.597 0 0 -0
112 2 20.6405 18.5416 29.4205 -0 0 -0
129 3 20.7188 17.7611 27.4049 0 0 -0
193 3 13.7168 18.6362 31.1903 0 -0 0
127 3 20.8221 20.8749 27.4312 0 0 0
135 3 19.1788 21.5896 25.7882 -0 -0 0
145 3 19.7164 20.3507 23.1059 -0 0 -0
323 2 12.3472 19.2184 25.6272 -0 -0 -0
321 2 12.6817 19.5012 27.1475 0 -0 0
324 2 14.6307 20.1017 28.9012 0 -0 -0
322 2 14.0577 20.2047 27.4155 -0 0 -0
355 3 16.5131 20.6852 28.0034 -0 0 0
342 3 14.0417 21.2437 27.0864 0 -0 0
345 3 14.7398 19.048 29.1582 0 0 -0
341 3 14.7279 19.683 26.7323 -0 -0 0
146 3 18.1858 20.2085 23.8933 0 -0 -0
167 2 12.4714 17.4749 32.472 0 -0 0
325 2 11.9644 20.4711 24.8017 -0 -0 -0
346 3 14.0609 20.6036 29.6833 0 -0 0
329 2 16.0251 20.78 28.9734 0 0 0
124 2 18.6281 22.2059 23.0035 -0 0 -0
335 2 17.2263 22.845 29.6818 -0 0 -0
363 3 15.5328 22.8568 28.4553 -0 -0 -0
366 3 17.7516 22.2587 30.4358 -0 -0 0
354 3 19.9181 22.1625 29.4139 -0 -0 0
333 2 15.8679 22.287 29.322 0 0 0
362 3 18.1629 22.5127 27.7318 0 0 -0
350 3 20.1509 23.6676 31.0132 -0 0 -0
348 3 12.8337 21.1187 24.6874 0 0 -0
205 3 15.8074 20.7368 33.2967 0 -0 0
168 2 13.2803 18.8277 32.1706 -0 -0 0
327 2 22.0579 23.8403 30.1459 -0 -0 -0
111 2 20.4822 19.9476 25.6229 -0 -0 0
172 2 14.3094 19.1616 33.2595 -0 -0 -0
154 3 22.6338 20.6423 32.3067 -0 0 -0
109 2 20.4122 19.9039 27.1534 0 0 0
128 3 19.3294 19.8268 27.252 0 0 0
326 2 20.5162 23.9426 30.0238 -0 -0 -0
118 2 18.9857 20.9182 23.6823 -0 0 0
344 3 13.1955 18.7352 25.1424 -0 0 -0
175 2 14.7232 20.6775 33.2011 0 -0 0
353 3 20.3811 22.9771 27.9715 -0 0 -0
339 3 11.9352 20.155 27.5984 0 0 0
131 3 20.3806 19.0019 25.0906 -0 -0 0
132 3 21.5548 20.104 25.5082 -0 -0 0
351 3 22.2959 22.7829 30.2613 0 0 -0
123 2 22.2426 19.7372 32.7714 -0 0 0
203 3 13.508 16.808 29.8274 -0 0 0
361 3 18.0402 24.1491 28.1775 -0 0 0
328 2 19.8327 23.1212 28.9024 -0 0 0
117 2 21.6499 19.2529 30.3778 -0 -0 0
169 2 11.8509 16.5564 31.3234 0 0 -0
155 3 19.3459 22.9844 22.745 0 -0 0
360 3 22.58 23.6351 28.106 0 -0 -0
144 3 22.627 18.8069 30.1922 -0 -0 -0
121 2 21.2236 19.0993 31.8421 -0 0 -0
206 3 14.5308 20.9885 32.1742 -0 0 0
192 3 12.5759 19.6525 32.0633 -0 -0 -0
200 3 15.1872 18.5346 33.1029 0 -0 0
343 3 11.499 18.5355 25.6759 0 -0 -0
199 3 19.4949 16.7666 24.1103 0 0 0
191 3 12.9731 16.7498 33.1129 0 0 0
171 2 18.7766 16.2012 23.5166 0 0 -0
190 3 11.5828 17.8042 33.0106 -0 0 -0
367 3 12.3546 21.8693 22.4331 -0 0 0
275 2 19.0116 -1.37414 33.172 0 -0 0
349 3 20.196 24.9614 29.8054 -0 0 -0
279 2 18.8869 -0.630367 31.8421 -0 0 -0
313 3 20.8403 -1.31946 31.0904 -0 0 0
282 2 20.3012 -0.398118 31.311 -0 0 -0
308 3 18.2523 -1.09497 31.0874 0 0 0
352 3 22.2777 24.416 31.045 0 0 -0
301 3 19.382 -2.37987 32.9734 -0 0 -0
331 2 22.7835 24.4044 28.8508 -0 -0 -0
359 3 22.2967 25.3022 28.4699 -0 0 -0
297 3 16.8706 -1.74103 33.3401 0 0 0
178 2 14.1462 21.5024 34.3324 -0 -0 -0
138 3 20.4866 20.439 36.5907 0 -0 0
201 3 13.8865 18.9042 34.2306 0 -0 0
120 2 21.8697 20.1341 34.2184 0 -0 0
148 3 20.4987 16.6974 36.3108 0 0 0
119 2 20.179 16.9786 37.3141 -0 0 -0
142 3 19.8854 19.372 34.5142 -0 0 0
211 3 14.2849 21.0931 35.333 -0 -0 -0
210 3 14.76 22.4022 34.2903 -0 0 0
147 3 21.0409 16.9302 37.9796 0 -0 0
149 3 21.4323 21.1317 34.1775 -0 0 -0
150 3 22.7962 20.2176 34.7865 -0 -0 0
116 2 20.8636 19.1738 34.9522 -0 0 -0
115 2 19.7806 18.5306 37.4063 0 -0 -0
212 3 13.0773 21.5885 34.1375 -0 -0 -0
137 3 21.7776 19.1576 36.9733 0 0 -0
141 3 21.1407 18.1519 34.6931 -0 -0 0
152 3 18.3298 16.3002 38.4005 0 0 0
140 3 19.8775 18.8138 38.4544 -0 0 -0
114 2 20.809 19.3992 36.5359 0 0 -0
139 3 18.7607 18.6408 37.0377 0 -0 -0
298 3 18.1743 -2.77324 35.2149 0 0 -0
300 3 19.7891 -0.805123 33.6818 0 -0 0
307 3 18.0348 -1.90054 37.3942 0 -0 -0
306 3 18.9956 -0.98882 36.3257 0 0 0
318 3 17.8538 -0.0361366 38.9349 0 -0 -0
274 2 17.5391 -1.89115 35.2961 0 0 -0
312 3 16.071 -0.219833 37.0671 0 0 -0
299 3 16.4962 -2.16233 35.4598 -0 0 0
296 3 17.2362 -0.268627 34.0364 -0 0 0
278 2 17.953 -1.20214 36.5613 -0 0 -0
273 2 17.668 -1.26115 33.9077 -0 -0 0
1066 5 24.4413 2.02288 4.04785 0 0 0
1067 4 26.606 1.71146 5.92708 0 0 0
1069 4 30.0575 0.346343 8.28238 -0 0 0
1070 5 25.2191 0.774545 8.18806 -0 -0 -0
1071 4 26.242 0.598376 10.8801 0 0 -0
1072 5 29.0321 0.971713 10.7642 -0 0 0
1077 4 23.4119 4.71412 4.265 -0 0 0
1078 5 24.4483 7.41295 4.05006 -0 0 0
1079 4 26.6112 7.09832 5.93572 -0 0 -0
1080 5 28.7205 5.14254 5.81209 0 -0 0
1081 4 30.0705 5.73791 8.27016 -0 -0 0
1082 5 25.2403 6.15697 8.20408 -0 0 -0
1083 4 26.2658 6.01786 10.9353 -0 -0 -0
1084 5 29.0603 6.36616 10.7486 -0 0 0
1138 5 32.0633 2.02236 4.03673 -0 -0 0
1139 4 34.2196 1.69968 5.9061 0 -0 0
1142 5 32.8375 0.783679 8.17761 -0 0 -0
1143 4 33.8482 0.58302 10.8468 -0 0 -0
1149 4 31.0207 4.71216 4.23582 0 -0 -0
1150 5 32.0683 7.41264 4.03669 0 -0 0
1151 4 34.2236 7.08858 5.90921 0 -0 0
1154 5 32.8537 6.1661 8.18462 0 -0 0
1155 4 33.8615 5.99358 10.8774 -0 0 -0
1089 4 23.4182 10.1045 4.26394 -0 0 0
1090 5 24.4531 12.8046 4.04578 -0 0 -0
1091 4 26.6149 12.4827 5.93378 0 0 -0
1092 5 28.7251 10.5298 5.8071 0 0 0
1093 4 30.0786 11.1087 8.26931 -0 0 0
1094 5 25.2456 11.5498 8.20373 -0 0 -0
1095 4 26.2823 11.3941 10.9421 0 -0 -0
1096 5 29.0665 11.8046 10.726 -0 0 0
1101 4 23.4178 15.4933 4.26164 0 -0 0
1104 5 28.7266 15.9224 5.80638 0 -0 0
1161 4 31.0258 10.1025 4.23312 0 0 -0
1162 5 32.0719 12.8042 4.0322 0 -0 0
1163 4 34.2266 12.4752 5.90548 0 -0 -0
1166 5 32.859 11.5574 8.18168 0 -0 -0
1167 4 33.8733 11.3764 10.8777 0 -0 0
1173 4 31.0257 15.4918 4.23102 0 -0 -0
54 1 26.2575 4.70959 20.1481 0 0 0
73 2 26.2387 4.82283 21.4289 -0 -0 0
1073 4 30.3529 1.65113 13.2195 0 0 -0
1076 5 28.0311 2.02496 14.778 -0 0 -0
1085 4 30.3547 6.97412 13.2438 0 -0 -0
1086 5 24.8238 4.95064 13.1187 0 0 0
1087 4 26.9346 4.74766 15.1419 -0 -0 0
1088 5 27.9754 7.42491 14.6696 -0 0 0
1158 5 32.4904 5.00391 13.1257 -0 -0 -0
55 1 24.9393 4.91022 21.7621 -0 -0 0
93 3 28.9433 3.16895 20.8793 -0 -0 0
638 1 32.6788 5.39733 21.4697 -0 0 -0
656 2 33.8896 5.90514 21.5097 0 -0 0
103 3 26.3634 2.76191 21.6108 -0 -0 0
79 3 28.9342 0.538182 21.6865 -0 0 -0
65 2 28.4566 3.39486 21.8281 0 0 0
92 3 28.9039 4.33398 22.1538 0 -0 -0
71 2 26.9388 3.60153 22.0006 0 -0 0
791 3 27.0935 14.5865 21.6128 0 -0 0
2 1 25.6417 10.5278 21.4912 0 0 0
550 2 33.855 15.5305 21.2349 -0 -0 0
1111 4 26.9036 15.4943 15.2155 0 0 -0
20 2 26.7256 11.0134 21.0095 -0 -0 0
585 1 32.7365 11.3058 21.3111 -0 -0 -0
1097 4 30.3301 12.2918 13.261 0 -0 -0
1098 5 24.8344 10.3422 13.1172 -0 -0 -0
1170 5 32.5064 10.3963 13.1235 0 -0 -0
1100 5 27.956 12.8158 14.6589 -0 -0 -0
603 2 34.0311 11.3069 21.6907 -0 0 0
18 2 27.9237 10.5355 21.9336 0 0 -0
50 3 28.8828 10.4473 21.4233 -0 -0 -0
1099 4 26.9063 10.122 15.2028 0 -0 -0
1182 5 32.5262 15.8219 13.1314 0 0 -0
1110 5 24.8576 15.7763 13.1271 0 -0 0
1 1 26.6387 10.5388 19.7945 0 -0 -0
762 2 25.6209 16.0699 21.0719 -0 0 -0
760 2 26.5801 15.4139 22.1026 -0 0 0
743 1 26.2115 16.0887 19.9261 -0 -0 -0
49 3 27.6064 9.52856 22.2047 -0 0 -0
60 2 28.97 2.38092 22.9148 0 0 -0
82 3 28.6487 2.8277 23.8557 -0 0 0
599 2 24.7397 7.7448 24.5052 -0 0 0
63 2 33.7059 1.32868 29.7213 0 0 -0
614 3 27.6537 6.97605 25.188 -0 0 -0
591 2 27.1467 6.25398 25.828 -0 -0 0
102 3 26.7162 3.48316 23.0611 0 -0 0
96 3 31.571 1.2776 29.4386 -0 0 0
627 3 28.0091 6.76065 28.5792 -0 -0 -0
619 3 28.9475 5.14052 26.2207 -0 0 -0
593 2 28.1173 5.56154 26.7879 0 0 0
626 3 29.3075 7.26351 27.3966 -0 0 0
597 2 28.7594 6.44096 27.856 -0 -0 -0
615 3 26.718 5.46527 25.2097 0 -0 0
631 3 30.3815 4.85467 27.9979 -0 0 -0
628 3 30.677 7.32708 29.6081 0 -0 -0
598 2 30.8661 6.25374 29.6252 0 0 -0
600 2 29.8382 5.54331 28.645 0 -0 0
618 3 27.6827 4.66298 27.2258 -0 -0 0
78 3 27.5085 0.601441 22.4721 -0 0 0
592 2 26.0366 6.94603 26.5624 0 0 -0
617 3 25.9772 6.42348 27.5172 0 -0 0
616 3 26.4312 7.95553 26.678 -0 -0 -0
620 3 32.8488 6.13542 30.3917 -0 -0 0
611 3 32.3148 6.76731 27.3573 0 0 0
621 3 32.4464 4.95552 29.0774 0 -0 -0
589 2 32.9937 6.82858 28.2079 -0 0 -0
610 3 33.8889 6.25956 27.9568 0 -0 -0
594 2 32.3554 5.98226 29.4319 -0 -0 0
76 3 28.1867 0.840948 25.6038 0 0 0
58 2 28.5551 0.838437 22.6633 0 0 -0
83 3 30.0514 2.51296 22.8805 -0 -0 -0
84 3 33.3267 3.24317 30.3249 -0 -0 0
98 3 30.5938 1.07551 26.4846 -0 -0 -0
596 2 24.6114 7.0277 25.8236 0 -0 0
97 3 32.4568 2.32983 28.1844 -0 -0 0
630 3 25.5312 7.22584 23.9645 -0 -0 -0
94 3 34.2565 4.01435 32.8901 0 0 -0
602 2 23.4973 7.43993 23.6147 -0 0 -0
101 3 33.0896 0.359886 26.8157 0 0 -0
61 2 33.7012 2.39196 30.8935 0 -0 -0
624 3 23.9059 7.50308 26.505 0 0 0
85 3 32.9255 2.16428 31.6247 0 0 0
635 3 23.6662 6.54057 23.0225 0 -0 0
686 3 33.3934 6.5363 23.4535 0 0 -0
676 3 34.252 4.19472 23.5672 -0 0 0
70 2 32.3683 0.355866 27.6329 0 0 -0
67 2 32.4378 1.42696 28.7948 0 -0 0
89 3 33.7777 0.329367 30.1506 0 -0 -0
68 2 30.9333 0.255781 27.1178 -0 -0 -0
625 3 24.2578 6.01465 25.6319 0 0 0
75 3 30.2647 0.26535 23.8991 -0 0 -0
654 2 34.295 6.22065 22.9285 0 -0 0
56 2 29.2036 0.033165 23.809 0 0 0
757 2 25.0676 15.9506 29.9607 -0 0 -0
43 3 25.3797 8.70519 31.02 -0 0 0
587 2 33.3828 8.29159 28.4448 0 -0 -0
27 3 27.5218 9.78317 28.8165 0 -0 0
45 3 27.8888 9.00388 31.1732 -0 0 -0
607 3 32.4648 8.87354 28.5275 0 0 -0
38 3 29.6628 10.3424 30.3286 -0 0 -0
23 3 29.7438 10.4795 27.9829 -0 -0 -0
6 2 27.9549 10.7653 29.0059 -0 -0 -0
11 2 28.6667 10.783 30.3719 0 0 -0
15 2 27.8527 10.0621 31.4319 0 0 0
606 3 33.9692 8.36929 29.3603 -0 -0 -0
772 3 24.0614 14.0828 22.5917 0 -0 0