ITEM: TIMESTEP
0
ITEM: NUMBER OF ATOMS
1280
ITEM: BOX BOUNDS pp pp pp
0.0000000000000000e+00 4.5735666000000002e+01
0.0000000000000000e+00 3.2339998999999999e+01
0.0000000000000000e+00 8.9056529999999995e+01
ITEM: ATOMS id type xu yu zu vx vy vz
850 5 1.54764 2.0236 4.0861 0 0 -0
851 4 3.7474 1.70504 5.93131 0 0 -0
853 4 7.19969 0.353906 8.31811 -0 0 -0
854 5 2.32451 0.824095 8.21293 -0 -0 -0
855 4 3.3763 0.52108 10.8551 0 -0 0
856 5 6.13174 0.993108 10.7996 0 0 0
861 4 0.527481 4.71421 4.25573 -0 0 -0
862 5 1.55144 7.41314 4.08956 0 0 -0
863 4 3.75058 7.09162 5.93949 -0 0 0
864 5 5.83256 5.11332 5.87177 -0 0 -0
865 4 7.21354 5.74398 8.32683 0 0 0
866 5 2.33008 6.21156 8.22372 0 -0 0
867 4 3.38553 5.92718 10.8788 -0 0 0
868 5 6.14151 6.38933 10.8014 -0 -0 0
922 5 9.16953 2.02442 4.09244 0 0 -0
923 4 11.3783 1.71983 5.94901 -0 0 0
926 5 9.95733 0.806291 8.21722 0 0 0
927 4 11.0119 0.55566 10.8946 0 -0 0
933 4 8.16454 4.71696 4.29276 -0 -0 0
934 5 9.17492 7.41425 4.09752 0 0 0
935 4 11.3819 7.10418 5.96307 0 -0 -0
938 5 9.97285 6.19109 8.23988 -0 -0 0
939 4 11.038 5.97014 10.9565 -0 -0 -0
873 4 0.531029 10.1039 4.25591 0 0 -0
874 5 1.55359 12.8035 4.08973 0 0 -0
875 4 3.75237 12.4774 5.94187 -0 -0 -0
876 5 5.83604 10.5022 5.87278 0 -0 -0
877 4 7.21934 11.1198 8.33362 -0 -0 -0
878 5 2.33041 11.603 8.22634 -0 0 0
879 4 3.39025 11.307 10.8827 -0 -0 0
880 5 6.13692 11.8122 10.7894 0 0 0
885 4 0.531279 15.4934 4.25427 0 -0 -0
888 5 5.83695 15.8953 5.87087 -0 -0 0
945 4 8.16906 10.1071 4.29542 0 0 -0
946 5 9.1785 12.8052 4.09643 0 0 -0
947 4 11.3845 12.4872 5.96596 0 0 0
950 5 9.97507 11.5852 8.24498 -0 -0 0
951 4 11.053 11.3384 10.9697 0 0 0
957 4 8.16861 15.4959 4.29292 0 0 0
796 1 11.1876 5.13944 20.6718 -0 0 0
797 1 9.45067 5.67489 21.7136 0 -0 0
815 2 10.7794 5.7832 21.7611 0 -0 -0
857 4 7.5717 1.73041 13.2072 -0 0 0
860 5 5.18997 2.0098 14.7838 0 -0 -0
869 4 7.58999 7.08862 13.2328 0 0 0
870 5 1.94434 5.00199 13.1416 -0 0 -0
871 4 4.22416 4.708 14.9119 0 -0 0
872 5 5.15788 7.40182 14.7243 0 -0 -0
942 5 9.51862 4.92288 13.1287 -0 -0 -0
425 1 11.1849 10.6446 20.6325 -0 0 -0
426 1 9.43897 11.1799 21.7246 -0 -0 -0
444 2 10.7732 11.1872 21.7714 0 -0 -0
881 4 7.57688 12.4425 13.2426 0 0 -0
882 5 1.94507 10.3894 13.1429 -0 0 -0
883 4 4.2221 10.0987 14.9289 -0 0 -0
884 5 5.14344 12.7999 14.7136 0 0 -0
894 5 1.95384 15.8005 13.1471 0 -0 -0
895 4 4.21599 15.4917 14.9403 -0 0 -0
954 5 9.51283 10.309 13.1276 0 0 0
966 5 9.52876 15.733 13.136 -0 0 0
372 1 11.1967 16.1099 20.6122 -0 -0 -0
798 2 11.2809 4.94214 28.1781 -0 -0 0
799 2 10.5951 5.47899 29.4463 -0 0 -0
800 2 10.602 5.49669 26.8964 -0 -0 0
801 2 11.263 4.94766 30.7464 0 0 0
802 2 11.2892 4.97291 25.6183 -0 0 -0
806 2 10.6784 5.58511 32.0245 0 -0 0
807 2 10.6259 5.55263 24.3411 -0 -0 -0
810 2 9.17934 5.31041 32.3616 0 -0 0
812 2 8.75258 3.92854 32.8946 -0 0 0
813 2 11.3074 5.06377 23.036 -0 -0 0
816 3 11.2296 3.85345 28.1633 -0 -0 0
818 3 10.6401 6.56804 29.4406 0 -0 -0
819 3 9.54795 5.17654 29.4347 -0 0 -0
820 3 10.6525 6.58544 26.9088 0 0 -0
821 3 9.55244 5.20272 26.8888 0 -0 -0
823 3 11.1812 3.86129 30.7812 0 -0 -0
825 3 11.2325 3.88472 25.5916 -0 -0 -0
832 3 10.7843 6.66595 31.9315 0 -0 0
833 3 11.2921 5.28549 32.874 -0 -0 -0
834 3 9.57609 5.25978 24.3228 -0 -0 -0
835 3 10.6751 6.64096 24.376 -0 0 -0
840 3 8.52308 5.64455 31.558 0 -0 -0
843 3 7.70467 3.91672 33.1943 -0 0 0
844 3 11.1637 3.98752 22.9404 0 0 0
374 2 11.2807 15.7211 28.1788 0 -0 0
377 2 11.2621 15.7259 30.7469 0 -0 -0
378 2 11.2894 15.7505 25.6204 0 0 -0
386 2 9.17846 16.0935 32.3629 0 -0 -0
388 2 8.75296 14.7128 32.8988 0 -0 0
389 2 11.3022 15.83 23.0358 0 -0 0
392 3 11.2288 14.6325 28.163 0 0 0
395 3 9.54794 15.9539 29.4344 -0 0 -0
397 3 9.55267 15.9803 26.8893 0 0 0
399 3 11.1798 14.6395 30.781 -0 -0 -0
401 3 11.2334 14.6622 25.5958 -0 0 0
409 3 11.2923 16.0644 32.8739 -0 0 0
410 3 9.57514 16.0305 24.325 -0 -0 0
419 3 7.7028 14.693 33.1902 -0 -0 -0
420 3 11.1652 14.753 22.9389 0 0 0
427 2 11.2806 10.3304 28.1787 -0 0 0
428 2 10.5947 10.8672 29.4468 -0 -0 -0
429 2 10.6019 10.8852 26.8971 0 -0 0
430 2 11.2624 10.3357 30.7468 0 0 0
431 2 11.2893 10.3602 25.6194 -0 0 -0
435 2 10.6782 10.9742 32.0247 0 -0 0
436 2 10.6254 10.9362 24.3412 0 -0 0
439 2 9.17879 10.7017 32.3625 -0 0 -0
441 2 8.75264 9.32083 32.8976 -0 -0 0
442 2 11.3032 10.4469 23.0341 -0 -0 0
445 3 11.2293 9.2417 28.1631 -0 -0 0
447 3 10.6399 11.9563 29.4408 -0 -0 0
448 3 9.54773 10.5644 29.4345 -0 0 0
449 3 10.6523 11.974 26.9088 -0 -0 0
450 3 9.55246 10.5906 26.8889 -0 0 -0
452 3 11.1805 9.2493 30.781 -0 -0 0
454 3 11.2332 9.27195 25.5937 -0 0 0
461 3 10.7851 12.0549 31.9309 -0 0 -0
462 3 11.2925 10.6749 32.8739 -0 0 0
463 3 9.57552 10.6436 24.3239 -0 -0 0
464 3 10.6754 12.0245 24.3741 0 0 0
469 3 8.52428 11.0306 31.5553 0 0 0
472 3 7.70325 9.30475 33.1919 -0 -0 0
473 3 11.1614 9.37078 22.9343 -0 -0 -0
455 3 10.2415 7.3138 36.2971 -0 0 0
465 3 11.1245 6.97913 38.6451 -0 -0 0
468 3 9.27534 7.57178 34.0027 0 0 0
803 2 10.6512 2.93338 36.257 -0 -0 0
804 2 10.7492 3.50264 37.6882 -0 0 -0
805 2 9.75133 3.80609 35.3267 0 0 0
809 2 9.66526 3.18913 33.9133 0 0 -0
826 3 10.2432 1.92337 36.2961 -0 0 0
828 3 9.74307 3.61644 38.0917 0 0 -0
829 3 11.21 4.49001 37.6587 0 0 0
830 3 8.7545 3.87394 35.7624 0 -0 -0
831 3 10.1733 4.80966 35.2728 0 0 0
836 3 11.1258 1.58966 38.6438 -0 0 0
837 3 11.432 2.98933 39.6684 -0 -0 -0
838 3 10.6636 3.11673 33.4818 -0 -0 -0
839 3 9.27799 2.17313 33.9898 -0 -0 -0
379 2 10.6507 13.7133 36.2586 -0 0 -0
380 2 10.7497 14.2818 37.6896 -0 -0 0
381 2 9.75017 14.5903 35.3332 -0 -0 -0
385 2 9.66365 13.9775 33.921 0 0 -0
402 3 10.2416 12.7037 36.2971 0 -0 -0
404 3 9.74344 14.3956 38.0928 -0 -0 0
405 3 11.2107 15.269 37.6594 -0 0 -0
406 3 8.75278 14.6562 35.7678 -0 0 -0
407 3 10.1731 15.5934 35.2785 -0 -0 0
412 3 11.1247 12.3691 38.645 -0 -0 0
413 3 11.4328 13.7687 39.6688 -0 -0 -0
414 3 10.6636 13.9072 33.4931 0 0 -0
415 3 9.27502 12.9624 34.0023 -0 0 0
432 2 10.6505 8.3234 36.2585 -0 0 -0
433 2 10.7496 8.89182 37.6894 -0 0 -0
434 2 9.74994 9.2003 35.3328 0 -0 0
438 2 9.66351 8.58703 33.9208 0 -0 0
457 3 9.74344 9.0058 38.0928 0 0 -0
458 3 11.2107 9.87905 37.6593 0 0 0
459 3 8.7526 9.26654 35.7676 -0 -0 -0
460 3 10.1729 10.2034 35.2781 -0 0 -0
466 3 11.4328 8.3789 39.6687 -0 -0 -0
467 3 10.6637 8.51738 33.4932 0 0 -0
886 5 1.55246 18.1939 4.08765 -0 0 -0
887 4 3.75122 17.8661 5.93865 -0 0 -0
889 4 7.21805 16.4967 8.33482 -0 -0 0
890 5 2.32818 16.9981 8.22384 -0 -0 -0
891 4 3.39176 16.6755 10.8711 -0 0 -0
892 5 6.1304 17.2232 10.7801 -0 -0 0
897 4 0.528479 20.883 4.25275 -0 -0 0
898 5 1.5488 23.5842 4.08512 0 -0 -0
899 4 3.74845 23.2596 5.93196 -0 -0 0
900 5 5.83337 21.2888 5.86585 0 0 0
901 4 7.20887 21.887 8.32637 0 -0 -0
902 5 2.32422 22.3909 8.21591 0 0 -0
903 4 3.38491 22.047 10.8515 0 -0 0
904 5 6.12221 22.605 10.7773 -0 -0 0
958 5 9.1776 18.1954 4.09324 -0 0 0
959 4 11.3823 17.8733 5.96176 -0 0 -0
962 5 9.97 16.9862 8.24409 -0 -0 -0
963 4 11.0589 16.6881 10.9481 -0 0 0
969 4 8.16437 20.8844 4.28771 0 0 -0
970 5 9.17292 23.585 4.09027 0 0 0
971 4 11.3779 23.2671 5.95282 -0 -0 0
974 5 9.95999 22.3808 8.23249 0 -0 -0
975 4 11.0477 22.0371 10.903 0 -0 -0
849 4 0.52429 -0.67585 4.25475 0 0 0
852 5 5.82742 -0.27391 5.8658 -0 -0 -0
909 4 0.525071 26.2735 4.25342 -0 -0 0
910 5 1.54606 28.9744 4.08368 0 0 -0
911 4 3.74635 28.6543 5.92696 0 -0 -0
912 5 5.82713 26.6783 5.86136 0 -0 -0
913 4 7.1961 27.2903 8.31582 -0 0 0
914 5 2.32068 27.7783 8.20745 0 -0 0
915 4 3.37376 27.4417 10.8394 -0 0 0
916 5 6.11836 27.9674 10.7841 0 -0 -0
921 4 8.16029 -0.674192 4.28827 0 -0 0
981 4 8.16061 26.2744 4.2856 0 -0 -0
982 5 9.16837 28.975 4.08831 -0 -0 -0
983 4 11.3765 28.6668 5.94291 0 0 0
986 5 9.94927 27.7649 8.21037 0 0 -0
987 4 11.016 27.4407 10.8633 0 -0 0
319 1 11.2646 21.6651 20.5849 -0 -0 -0
320 1 9.44325 22.2144 21.7414 -0 0 0
338 2 10.7325 21.8757 21.7757 0 0 0
373 1 9.43704 16.6507 21.7305 -0 0 0
391 2 10.7689 16.5734 21.7774 0 -0 -0
893 4 7.55282 17.8019 13.2419 -0 -0 -0
896 5 5.14628 18.1975 14.7339 0 0 -0
905 4 7.53048 23.1921 13.2268 0 -0 0
906 5 1.96503 21.2241 13.1534 -0 -0 -0
907 4 4.21342 20.8855 14.94 -0 -0 0
908 5 5.17014 23.5918 14.7832 0 -0 -0
978 5 9.55798 21.1882 13.1519 0 -0 0
990 5 9.55913 26.6209 13.1456 -0 -0 -0
858 5 1.95024 -0.352799 13.1426 0 0 0
859 4 4.21717 -0.678019 14.8954 0 -0 0
917 4 7.53537 28.6459 13.2009 -0 0 -0
918 5 1.96288 26.6293 13.151 -0 0 0
919 4 4.21341 26.277 14.9133 0 0 0
920 5 5.20106 28.9732 14.8245 -0 -0 0
930 5 9.53378 -0.395282 13.1288 -0 -0 -0
321 2 11.2803 21.1104 28.1802 0 -0 0
322 2 10.5937 21.6477 29.4481 -0 0 -0
323 2 10.601 21.6653 26.8986 -0 -0 -0
324 2 11.2596 21.1203 30.7506 0 -0 -0
325 2 11.2889 21.1393 25.6225 -0 -0 -0
329 2 10.676 21.7611 32.0304 0 0 0
330 2 10.623 21.7046 24.3418 0 -0 -0
333 2 9.17656 21.491 32.371 0 0 0
335 2 8.75471 20.1049 32.8983 -0 0 -0
336 2 11.3025 21.1927 23.046 0 0 -0
339 3 11.2281 20.0218 28.1645 0 0 0
341 3 10.6375 22.7368 29.4416 -0 -0 0
342 3 9.54742 21.3425 29.4357 0 -0 0
343 3 10.6501 22.7541 26.9102 0 -0 -0
344 3 9.55234 21.3682 26.8906 -0 0 -0
346 3 11.1773 20.034 30.7851 0 -0 0
348 3 11.2338 20.0509 25.6006 0 0 -0
355 3 10.7836 22.8427 31.949 -0 0 0
356 3 11.2903 21.4532 32.8766 0 0 0
357 3 9.57247 21.4142 24.3277 0 -0 -0
358 3 10.676 22.7931 24.3627 -0 0 0
363 3 8.5245 21.8068 31.5566 -0 -0 -0
366 3 7.70463 20.0813 33.1896 -0 -0 0
367 3 11.1937 20.1103 22.9777 -0 0 0
375 2 10.5947 16.2577 29.447 -0 -0 0
376 2 10.6017 16.2762 26.8975 0 -0 -0
382 2 10.6782 16.3646 32.0248 0 0 -0
383 2 10.625 16.3231 24.3414 -0 0 -0
394 3 10.6393 17.3468 29.4413 -0 0 -0
396 3 10.6515 17.365 26.9092 0 0 -0
408 3 10.786 17.4452 31.9312 -0 -0 -0
411 3 10.6753 17.4115 24.3719 -0 0 -0
416 3 8.52444 16.4183 31.5537 -0 0 0
326 2 10.6503 19.1021 36.2584 -0 -0 -0
327 2 10.7488 19.67 37.6898 -0 -0 -0
328 2 9.74976 19.9792 35.333 -0 0 0
332 2 9.66401 19.3673 33.9203 0 0 -0
349 3 10.2413 18.0925 36.2967 -0 0 -0
351 3 9.74235 19.7826 38.0929 0 0 -0
352 3 11.2084 20.6579 37.6612 0 0 -0
353 3 8.75213 20.0438 35.7673 -0 0 -0
354 3 10.1715 20.9829 35.2799 -0 -0 0
359 3 11.1245 17.7572 38.6448 -0 0 -0
360 3 11.4322 19.1567 39.6689 0 -0 -0
361 3 10.6643 19.2961 33.4931 -0 0 0
362 3 9.27472 18.3524 34.0013 0 0 -0
925 4 14.8288 0.333596 8.31352 0 0 -0
928 5 13.7717 0.994066 10.7812 0 -0 -0
936 5 13.4571 5.11652 5.84632 -0 -0 0
937 4 14.8476 5.72362 8.30719 0 -0 -0
940 5 13.7973 6.39393 10.7652 0 0 0
994 5 16.8071 2.02395 4.07101 0 -0 0
995 4 18.997 1.72164 5.94263 0 -0 -0
997 4 22.4461 0.332531 8.30218 -0 -0 0
998 5 17.5914 0.784479 8.19972 -0 0 -0
999 4 18.6288 0.586158 10.8962 -0 0 -0
1000 5 21.4037 0.988272 10.7705 -0 0 -0
1005 4 15.7948 4.71654 4.28906 0 0 -0
1006 5 16.8142 7.41403 4.07419 0 0 0
1007 4 19.0033 7.10778 5.95294 0 -0 -0
1008 5 21.0927 5.13216 5.82665 -0 -0 0
1009 4 22.4638 5.72345 8.2935 -0 -0 -0
1010 5 17.6127 6.16694 8.21691 -0 -0 -0
1011 4 18.6554 6.00647 10.9585 0 -0 0
1012 5 21.4325 6.38608 10.7552 -0 0 0
948 5 13.4621 10.5044 5.84438 -0 -0 0
949 4 14.856 11.0908 8.31284 -0 -0 -0
952 5 13.7967 11.8384 10.7424 0 0 -0
960 5 13.4638 15.8986 5.84385 -0 -0 0
1017 4 15.8007 10.107 4.28983 -0 -0 -0
1018 5 16.8192 12.8056 4.07037 -0 -0 0
1019 4 19.0072 12.4909 5.95235 -0 -0 -0
1020 5 21.0983 10.5192 5.823 0 0 -0
1021 4 22.4729 11.0902 8.29666 -0 0 -0
1022 5 17.6167 11.5609 8.21788 0 0 0
1023 4 18.6729 11.3786 10.9686 0 -0 0
1024 5 21.4362 11.8323 10.7307 0 -0 -0
1029 4 15.8 15.4956 4.28742 -0 -0 0
1032 5 21.1 15.9128 5.82257 0 -0 -0
266 1 18.8989 5.14399 20.6801 0 0 -0
267 1 17.1209 5.63743 21.6803 0 0 0
285 2 18.4356 5.7789 21.7568 -0 -0 0
929 4 15.1733 1.73243 13.213 0 -0 0
932 5 12.7579 2.02002 14.7117 0 -0 -0
941 4 15.1812 7.05736 13.2414 0 -0 0
943 4 11.7706 4.7328 15.0646 -0 0 -0
944 5 12.7001 7.41342 14.5954 -0 0 0
1001 4 22.7634 1.69614 13.2193 0 -0 0
1004 5 20.3838 2.02236 14.7313 0 0 0
1013 4 22.7697 7.01522 13.249 0 -0 0
1014 5 17.1631 4.92321 13.1172 -0 -0 -0
1015 4 19.3431 4.74139 15.1136 -0 0 0
1016 5 20.3251 7.41741 14.6145 -0 0 0
213 1 18.9089 10.6585 20.637 0 -0 -0
214 1 17.1174 11.1787 21.6876 -0 0 0
232 2 18.4391 11.1817 21.7668 -0 -0 -0
953 4 15.1557 12.3808 13.2582 -0 0 0
955 4 11.7544 10.1081 15.1224 0 0 0
956 5 12.6739 12.8007 14.5798 -0 0 0
967 4 11.7464 15.4863 15.1354 -0 0 -0
1025 4 22.7427 12.3301 13.2677 -0 -0 -0
1026 5 17.1684 10.3132 13.115 0 -0 -0
1027 4 19.3196 10.1142 15.1764 0 0 0
1028 5 20.3013 12.8054 14.6012 0 0 -0
1038 5 17.1915 15.7466 13.125 -0 -0 -0
1039 4 19.3139 15.4873 15.1896 0 0 0
160 1 18.9219 16.1415 20.6086 0 -0 0
268 2 18.9036 4.94228 28.1785 0 -0 -0
269 2 18.2176 5.47899 29.4466 0 0 0
270 2 18.2246 5.49697 26.8967 0 0 0
271 2 18.8852 4.94769 30.7469 0 0 0
272 2 18.9121 4.97356 25.6189 0 0 0
276 2 18.3003 5.58556 32.0247 0 0 0
277 2 18.251 5.55265 24.3397 0 -0 -0
280 2 16.8011 5.31145 32.3619 0 -0 -0
282 2 16.3744 3.93055 32.8972 -0 0 -0
283 2 18.9431 5.06213 23.0401 0 -0 0
286 3 18.8514 3.85364 28.1632 0 -0 -0
287 3 19.9532 5.2365 28.1727 0 0 -0
288 3 18.2616 6.56808 29.4403 -0 -0 -0
289 3 17.1705 5.17652 29.4341 0 -0 0
290 3 18.2738 6.5858 26.9086 -0 0 0
291 3 17.1751 5.20278 26.888 -0 -0 -0
292 3 19.9458 5.19444 30.6983 -0 0 -0
293 3 18.8026 3.86137 30.7813 0 0 -0
294 3 19.9633 5.26151 25.6316 0 -0 -0
295 3 18.8544 3.88542 25.592 -0 0 -0
302 3 18.4058 6.66638 31.9308 -0 -0 0
303 3 18.9139 5.28637 32.8744 0 -0 -0
304 3 17.2016 5.25877 24.3171 -0 -0 0
305 3 18.2967 6.64115 24.3739 0 -0 -0
310 3 16.1454 5.64268 31.5566 0 0 -0
313 3 15.3248 3.91576 33.1905 -0 0 0
314 3 18.7946 3.98661 22.9436 -0 -0 -0
315 3 20.0143 5.24908 23.116 0 0 -0
817 3 12.3304 5.2365 28.1725 0 -0 0
822 3 12.3236 5.19462 30.6981 -0 0 -0
824 3 12.3402 5.26135 25.6302 0 0 0
845 3 12.3786 5.25329 23.1039 -0 -0 -0
162 2 18.9033 15.7216 28.1794 -0 -0 -0
165 2 18.8841 15.726 30.7476 0 -0 0
166 2 18.912 15.7513 25.6215 0 -0 -0
174 2 16.7999 16.0956 32.3634 0 0 0
176 2 16.375 14.7161 32.9026 -0 -0 0
177 2 18.9392 15.8194 23.0427 0 0 0
180 3 18.8502 14.633 28.1629 -0 -0 -0
181 3 19.9534 16.0139 28.1731 0 -0 0
183 3 17.1705 15.9535 29.4337 0 -0 0
185 3 17.1752 15.9802 26.8887 -0 0 -0
186 3 19.9451 15.9709 30.6983 0 0 -0
187 3 18.8006 14.6397 30.7811 -0 0 -0
188 3 19.9631 16.0398 25.6323 -0 0 -0
189 3 18.8553 14.6631 25.5979 -0 0 0
197 3 18.914 16.0653 32.8744 -0 0 0
198 3 17.2001 16.0276 24.3192 -0 0 -0
207 3 15.3223 14.6902 33.1841 0 -0 0
208 3 18.8018 14.742 22.9509 0 0 -0
209 3 20.0086 16.0187 23.1114 -0 -0 0
215 2 18.9033 10.3307 28.1791 0 -0 -0
216 2 18.2172 10.8673 29.4472 -0 -0 0
217 2 18.2243 10.8857 26.8975 0 -0 -0
218 2 18.8844 10.3357 30.7475 0 0 -0
219 2 18.9121 10.3609 25.6203 -0 -0 0
223 2 18.3001 10.9748 32.025 0 -0 -0
224 2 18.2507 10.9349 24.3394 -0 0 -0
227 2 16.8004 10.7032 32.3629 0 -0 -0
229 2 16.3745 9.32345 32.9008 0 0 -0
230 2 18.9409 10.442 23.0394 0 0 0
233 3 18.8508 9.24206 28.163 -0 0 0
234 3 19.9531 10.6242 28.1728 -0 0 -0
235 3 18.2611 11.9564 29.4406 -0 0 -0
236 3 17.1703 10.5642 29.4337 0 -0 -0
237 3 18.2731 11.9746 26.9086 -0 0 -0
238 3 17.1751 10.5905 26.8882 -0 0 -0
239 3 19.9452 10.5818 30.6982 -0 -0 0
240 3 18.8015 9.2494 30.7812 -0 -0 -0
241 3 19.9631 10.6494 25.6319 0 -0 -0
242 3 18.855 9.27267 25.5949 0 0 -0
249 3 18.4066 12.0554 31.9301 -0 -0 -0
250 3 18.9142 10.6758 32.8745 -0 -0 0
251 3 17.2012 10.6414 24.3175 0 0 -0
252 3 18.297 12.0235 24.3705 0 -0 0
257 3 16.1467 11.0275 31.5531 -0 -0 -0
260 3 15.3229 9.30272 33.1867 -0 -0 0
261 3 18.7939 9.36667 22.9391 -0 0 0
262 3 20.012 10.6299 23.1146 0 -0 0
393 3 12.3306 16.0139 28.1728 0 -0 -0
398 3 12.323 15.9714 30.698 0 0 0
400 3 12.3404 16.0393 25.6305 -0 -0 0
421 3 12.3726 16.0256 23.0985 -0 -0 0
446 3 12.3303 10.6242 28.1726 -0 -0 -0
451 3 12.323 10.5821 30.6979 0 0 0
453 3 12.3402 10.6492 25.6302 -0 -0 -0
474 3 12.3744 10.6374 23.0999 -0 -0 -0
225 2 19.1765 7.98041 38.662 -0 -0 -0
228 2 20.6877 7.90376 38.3284 0 -0 0
231 2 21.4679 7.0779 39.3751 0 -0 -0
243 3 17.8628 7.31338 36.2977 0 -0 0
253 3 18.7463 6.97901 38.6454 0 -0 -0
256 3 16.8955 7.5723 34.0025 -0 0 0
258 3 20.8339 7.43723 37.3541 0 -0 -0
263 3 21.0826 6.05882 39.4086 -0 0 -0
264 3 21.3703 7.53205 40.3611 -0 0 0
265 3 22.5231 7.0458 39.1035 0 -0 0
273 2 18.2728 2.93307 36.258 -0 -0 0
274 2 18.3706 3.50242 37.6891 0 0 -0
275 2 17.3727 3.8059 35.3282 0 -0 0
278 2 19.1764 2.5916 38.6614 -0 0 -0
279 2 17.2866 3.18943 33.9147 -0 0 -0
281 2 20.688 2.51618 38.3288 -0 0 -0
284 2 21.4683 1.69019 39.3756 -0 -0 -0
296 3 17.8646 1.92311 36.2966 -0 0 0
297 3 19.2661 2.87883 35.8125 0 0 0
298 3 17.3643 3.61603 38.0922 0 0 -0
299 3 18.8311 4.48991 37.6591 -0 0 0
300 3 16.3757 3.87369 35.7635 0 -0 0
301 3 17.7945 4.80951 35.2737 -0 0 -0
306 3 18.7477 1.58962 38.6441 0 0 0
307 3 19.0538 2.9892 39.6689 0 -0 -0
308 3 18.2845 3.1172 33.4823 0 0 0
309 3 16.8986 2.17358 33.9898 0 0 -0
311 3 20.8349 2.04979 37.3547 0 -0 -0
312 3 21.1068 3.52166 38.2871 0 0 -0
316 3 21.0838 0.67077 39.4083 -0 0 0
317 3 21.3701 2.14351 40.362 -0 -0 0
318 3 22.5236 1.65856 39.1045 0 -0 -0
437 2 11.5546 7.98058 38.6614 0 -0 -0
440 2 13.0658 7.90376 38.3281 0 0 0
443 2 13.8455 7.07785 39.375 -0 -0 0
470 3 13.2124 7.43719 37.3539 0 0 0
475 3 13.4603 6.05874 39.4087 -0 0 -0
476 3 13.7479 7.53206 40.361 0 -0 0
477 3 14.9007 7.0457 39.1037 -0 0 0
808 2 11.5545 2.59169 38.6609 -0 0 0
811 2 13.066 2.51614 38.3286 0 0 0
814 2 13.8459 1.69011 39.3755 -0 -0 -0
827 3 11.6447 2.87891 35.812 0 0 -0
841 3 13.2133 2.04971 37.3545 -0 0 -0
842 3 13.485 3.52154 38.2872 0 -0 -0
846 3 13.4615 0.670662 39.4084 0 -0 0
847 3 13.7477 2.14349 40.3619 0 -0 -0
848 3 14.9012 1.65845 39.1047 0 0 -0
167 2 18.2723 13.7128 36.2597 0 -0 0
168 2 18.3711 14.2815 37.6905 -0 -0 0
169 2 17.3716 14.59 35.335 0 0 -0
172 2 19.1765 13.3704 38.6621 -0 -0 -0
173 2 17.2848 13.978 33.9228 0 0 -0
175 2 20.6878 13.2938 38.3284 0 -0 0
178 2 21.4679 12.4679 39.3751 -0 -0 -0
190 3 17.8629 12.7033 36.2977 -0 0 -0
191 3 19.2648 13.6572 35.8127 0 0 0
192 3 17.3646 14.395 38.0933 -0 -0 -0
193 3 18.8318 15.2688 37.6599 0 -0 0
194 3 16.374 14.6557 35.7692 -0 -0 -0
195 3 17.7943 15.5931 35.2798 -0 -0 -0
200 3 18.7465 12.369 38.6452 0 -0 0
201 3 19.0545 13.7685 39.6695 0 -0 0
202 3 18.2843 13.9077 33.4935 0 0 -0
203 3 16.895 12.9631 34.002 -0 0 0
205 3 20.8339 12.827 37.3543 0 -0 0
206 3 21.107 14.2991 38.286 -0 0 0
210 3 21.0826 11.4488 39.4085 -0 0 0
211 3 21.3703 12.9219 40.3612 -0 -0 -0
212 3 22.523 12.4357 39.1034 -0 -0 -0
220 2 18.2721 8.3229 36.2596 -0 -0 0
221 2 18.371 8.89148 37.6904 -0 -0 0
222 2 17.3713 9.19996 35.3345 -0 0 0
226 2 17.2846 8.58731 33.9225 -0 0 -0
244 3 19.2647 8.26758 35.8126 0 -0 -0
245 3 17.3646 9.00527 38.0933 -0 -0 0
246 3 18.8317 9.87885 37.6597 -0 -0 -0
247 3 16.3737 9.26609 35.7688 0 -0 0
248 3 17.794 10.2031 35.2792 -0 0 0
254 3 19.0546 8.37869 39.6693 -0 0 0
255 3 18.2843 8.51774 33.4937 -0 0 -0
259 3 21.1068 8.90909 38.2861 -0 -0 -0
384 2 11.5546 13.3706 38.6615 0 -0 0
387 2 13.0658 13.2938 38.3281 -0 -0 -0
390 2 13.8455 12.4679 39.375 0 -0 -0
403 3 11.6435 13.6575 35.8122 -0 0 0
417 3 13.2123 12.827 37.3541 0 0 -0
418 3 13.4852 14.299 38.2861 0 -0 -0
422 3 13.4603 11.4487 39.4086 -0 0 -0
423 3 13.7479 12.922 40.3611 -0 0 -0
424 3 14.9007 12.4356 39.1036 0 0 0
456 3 11.6434 8.26782 35.8121 0 -0 0
471 3 13.4851 8.909 38.2862 0 -0 -0
961 4 14.8554 16.46 8.31781 0 0 0
964 5 13.7877 17.267 10.7279 -0 -0 -0
972 5 13.46 21.2949 5.84413 0 0 0
973 4 14.8442 21.851 8.31583 0 -0 0
976 5 13.77 22.6546 10.7302 -0 0 0
1030 5 16.8178 18.1961 4.06652 0 -0 -0
1031 4 19.0048 17.8762 5.94689 0 -0 0
1033 4 22.4738 16.4583 8.3012 0 -0 -0
1034 5 17.6108 16.9635 8.21652 -0 0 -0
1035 4 18.6819 16.7253 10.942 0 -0 0
1036 5 21.4292 17.2652 10.7143 -0 -0 0
1041 4 15.7941 20.8837 4.28462 0 -0 0
1042 5 16.8111 23.5856 4.06535 -0 -0 -0
1043 4 18.9989 23.2691 5.93989 0 0 0
1044 5 21.0954 21.3089 5.82442 0 0 0
1045 4 22.4639 21.8487 8.30054 0 -0 0
1046 5 17.5979 22.3595 8.20782 0 0 0
1047 4 18.6733 22.0668 10.894 0 0 0
1048 5 21.4109 22.6549 10.7156 -0 -0 -0
924 5 13.4528 -0.266357 5.84937 0 -0 0
984 5 13.4538 26.6876 5.84718 0 0 -0
985 4 14.8258 27.2623 8.31621 0 -0 0
988 5 13.7531 27.996 10.76 0 -0 0
993 4 15.7886 -0.674804 4.28878 0 -0 0
996 5 21.0875 -0.250747 5.83194 0 0 -0
1053 4 15.7886 26.2737 4.28656 -0 -0 -0
1054 5 16.8053 28.975 4.06609 -0 0 -0
1055 4 18.9949 28.6678 5.93514 -0 0 -0
1056 5 21.0883 26.7024 5.82968 0 0 -0
1057 4 22.4452 27.2603 8.30388 -0 0 0
1058 5 17.5823 27.7442 8.19177 -0 -0 0
1059 4 18.6377 27.467 10.8598 -0 0 -0
1060 5 21.3883 27.9943 10.7467 0 0 -0
107 1 19.0059 21.7855 20.617 -0 -0 0
108 1 17.1737 22.3811 21.7481 -0 -0 0
126 2 18.2749 21.6356 21.7163 -0 0 0
161 1 17.1156 16.6949 21.6975 -0 0 0
179 2 18.4306 16.5533 21.7716 0 0 0
965 4 15.1292 17.7265 13.2566 -0 -0 0
968 5 12.6811 18.1905 14.6092 -0 0 0
977 4 15.1121 23.1156 13.239 -0 0 -0
979 4 11.7522 20.8683 15.1122 0 -0 0
980 5 12.7276 23.5803 14.6965 -0 0 -0
1037 4 22.7171 17.6725 13.2662 0 -0 -0
1040 5 20.3117 18.1957 14.634 0 0 0
1049 4 22.7024 23.064 13.2486 -0 -0 -0
1050 5 17.2216 21.2085 13.1434 -0 0 -0
1051 4 19.3296 20.8667 15.1632 -0 -0 0
1052 5 20.358 23.5852 14.7176 -0 -0 0
1064 5 20.4038 28.9736 14.8147 -0 0 0
931 4 11.8011 -0.668396 14.9313 -0 0 0
989 4 15.1266 28.6161 13.214 -0 -0 0
991 4 11.7883 26.2608 14.9731 -0 -0 0
992 5 12.7769 28.9699 14.7933 0 0 -0
1002 5 17.17 -0.373965 13.1251 0 0 0
1003 4 19.3851 -0.664799 14.9709 -0 -0 -0
1061 4 22.7163 28.5731 13.2233 0 -0 -0
1062 5 17.2068 26.6543 13.1438 0 0 -0
1063 4 19.3729 26.258 15.0198 -0 -0 0
109 2 18.9029 21.111 28.1801 0 0 0
110 2 18.2162 21.6478 29.4482 -0 -0 -0
111 2 18.2233 21.6665 26.8983 -0 -0 0
112 2 18.8816 21.1204 30.7511 -0 0 -0
113 2 18.9103 21.1422 25.6211 -0 -0 0
117 2 18.2981 21.7617 32.0307 -0 -0 0
118 2 18.2436 21.7031 24.336 -0 0 0
121 2 16.7981 21.4931 32.3715 -0 0 -0
123 2 16.3769 20.1081 32.9018 -0 0 0
124 2 18.9298 21.1762 23.0478 -0 0 -0
127 3 18.8496 20.0224 28.1639 0 0 0
128 3 19.9533 21.4021 28.174 0 0 0
129 3 18.2589 22.737 29.4414 0 0 -0
130 3 17.1701 21.342 29.4348 -0 -0 0
131 3 18.2709 22.7554 26.9097 -0 -0 0
132 3 17.175 21.3682 26.8898 -0 -0 0
133 3 19.9431 21.363 30.7009 0 -0 0
134 3 18.7983 20.0341 30.7852 0 -0 0
135 3 19.9614 21.4305 25.6301 -0 -0 0
136 3 18.8552 20.0537 25.6019 0 0 -0
143 3 18.4058 22.8433 31.9484 0 -0 -0
144 3 18.9121 21.4539 32.877 -0 -0 -0
145 3 17.1931 21.4127 24.3236 -0 0 -0
146 3 18.2966 22.7918 24.3486 0 -0 -0
151 3 16.1473 21.8028 31.5538 0 -0 0
154 3 15.3244 20.0781 33.1837 -0 0 -0
155 3 18.8658 20.0881 23.0373 0 -0 0
156 3 19.985 21.449 23.0665 0 0 -0
163 2 18.2171 16.2578 29.4474 -0 -0 0
164 2 18.224 16.277 26.8981 -0 0 -0
170 2 18.3001 16.3653 32.0252 -0 0 0
171 2 18.2498 16.3205 24.3396 0 0 -0
182 3 18.2605 17.3469 29.4412 0 -0 -0
184 3 18.2722 17.3659 26.909 -0 -0 0
196 3 18.4078 17.4458 31.9305 -0 0 0
199 3 18.2974 17.4092 24.3662 0 0 0
204 3 16.147 16.4144 31.5509 0 0 -0
340 3 12.3305 21.4021 28.1741 0 -0 -0
345 3 12.3209 21.3635 30.7008 0 0 -0
347 3 12.3397 21.4287 25.6313 -0 -0 0
368 3 12.3671 21.4226 23.0894 -0 -0 -0
114 2 18.2722 19.1014 36.2593 0 0 -0
115 2 18.3704 19.6695 37.6906 0 -0 -0
116 2 17.3715 19.9787 35.3346 -0 0 -0
119 2 19.1762 18.7585 38.662 -0 0 -0
120 2 17.2854 19.3677 33.9218 0 -0 0
122 2 20.6876 18.6827 38.3286 -0 0 -0
125 2 21.4679 17.8569 39.3752 0 -0 -0
137 3 17.8628 18.0919 36.2971 0 0 -0
138 3 19.2649 19.0458 35.8126 0 -0 0
139 3 17.3638 19.7817 38.0933 0 -0 -0
140 3 18.8297 20.6575 37.6615 -0 0 -0
141 3 16.3736 20.043 35.7685 -0 -0 0
142 3 17.793 20.9824 35.2811 -0 0 0
147 3 18.7465 17.757 38.645 0 -0 0
148 3 19.0541 19.1563 39.6695 0 0 0
149 3 18.2852 19.2963 33.4934 -0 0 -0
150 3 16.8949 18.3531 34.001 -0 -0 0
152 3 20.8341 18.2162 37.3544 0 0 0
153 3 21.1063 19.6882 38.2871 0 0 0
157 3 21.0827 16.8378 39.4086 0 0 -0
158 3 21.3703 18.3108 40.3614 -0 0 0
159 3 22.523 17.8247 39.1036 -0 0 -0
331 2 11.5542 18.7588 38.6615 -0 -0 -0
334 2 13.0655 18.6827 38.3283 0 0 0
337 2 13.8454 17.8569 39.3751 0 0 -0
350 3 11.6433 19.0464 35.8122 -0 0 -0
364 3 13.2125 18.2163 37.3542 -0 -0 0
365 3 13.4845 19.6882 38.2872 -0 0 -0
369 3 13.4603 16.8377 39.4086 0 -0 0
370 3 13.7478 18.3109 40.3613 0 0 -0
371 3 14.9006 17.8247 39.1037 -0 -0 -0
1066 5 24.4413 2.02288 4.04785 0 0 0
1067 4 26.606 1.71146 5.92708 0 0 0
1069 4 30.0575 0.346343 8.28238 -0 0 0
1070 5 25.2191 0.774545 8.18806 -0 -0 -0
1071 4 26.242 0.598376 10.8801 0 0 -0
1072 5 29.0321 0.971713 10.7642 -0 0 0
1077 4 23.4119 4.71412 4.265 -0 0 0
1078 5 24.4483 7.41295 4.05006 -0 0 0
1079 4 26.6112 7.09832 5.93572 -0 0 -0
1080 5 28.7205 5.14254 5.81209 0 -0 0
1081 4 30.0705 5.73791 8.27016 -0 -0 0
1082 5 25.2403 6.15697 8.20408 -0 0 -0
1083 4 26.2658 6.01786 10.9353 -0 -0 -0
1084 5 29.0603 6.36616 10.7486 -0 0 0
1138 5 32.0633 2.02236 4.03673 -0 -0 0
1139 4 34.2196 1.69968 5.9061 0 -0 0
1142 5 32.8375 0.783679 8.17761 -0 0 -0
1143 4 33.8482 0.58302 10.8468 -0 0 -0
1149 4 31.0207 4.71216 4.23582 0 -0 -0
1150 5 32.0683 7.41264 4.03669 0 -0 0
1151 4 34.2236 7.08858 5.90921 0 -0 0
1154 5 32.8537 6.1661 8.18462 0 -0 0
1155 4 33.8615 5.99358 10.8774 -0 0 -0
1089 4 23.4182 10.1045 4.26394 -0 0 0
1090 5 24.4531 12.8046 4.04578 -0 0 -0
1091 4 26.6149 12.4827 5.93378 0 0 -0
1092 5 28.7251 10.5298 5.8071 0 0 0
1093 4 30.0786 11.1087 8.26931 -0 0 0
1094 5 25.2456 11.5498 8.20373 -0 0 -0
1095 4 26.2823 11.3941 10.9421 0 -0 -0
1096 5 29.0665 11.8046 10.726 -0 0 0
1101 4 23.4178 15.4933 4.26164 0 -0 0
1104 5 28.7266 15.9224 5.80638 0 -0 0
1161 4 31.0258 10.1025 4.23312 0 0 -0
1162 5 32.0719 12.8042 4.0322 0 -0 0
1163 4 34.2266 12.4752 5.90548 0 -0 -0
1166 5 32.859 11.5574 8.18168 0 -0 -0
1167 4 33.8733 11.3764 10.8777 0 -0 0
1173 4 31.0257 15.4918 4.23102 0 -0 -0
54 1 26.5785 5.15844 20.6892 0 0 0
55 1 24.7678 5.62792 21.6605 -0 -0 0
73 2 26.0752 5.77964 21.7575 -0 -0 0
638 1 32.4277 5.63132 21.6274 -0 0 -0
656 2 33.7232 5.78688 21.7682 0 -0 0
1073 4 30.3529 1.65113 13.2195 0 0 -0
1076 5 28.0311 2.02496 14.778 -0 0 -0
1085 4 30.3547 6.97412 13.2438 0 -0 -0
1086 5 24.8238 4.95064 13.1187 0 0 0
1087 4 26.9346 4.74766 15.1419 -0 -0 0
1088 5 27.9754 7.42491 14.6696 -0 0 0
1158 5 32.4904 5.00391 13.1257 -0 -0 -0
1182 5 32.5262 15.8219 13.1314 0 0 -0
1 1 26.5944 10.6722 20.6467 0 -0 -0
2 1 24.7665 11.1787 21.6656 0 0 0
20 2 26.0815 11.1784 21.7668 -0 -0 0
1170 5 32.5064 10.3963 13.1235 0 -0 -0
585 1 32.4336 11.1882 21.625 -0 -0 -0
603 2 33.7357 11.1676 21.7744 -0 0 0
1097 4 30.3301 12.2918 13.261 0 -0 -0
1098 5 24.8344 10.3422 13.1172 -0 -0 -0
1099 4 26.9063 10.122 15.2028 0 -0 -0
1100 5 27.956 12.8158 14.6589 -0 -0 -0
1110 5 24.8576 15.7763 13.1271 0 -0 0
1111 4 26.9036 15.4943 15.2155 0 0 -0
743 1 26.6084 16.157 20.6153 -0 -0 -0
56 2 26.5269 4.94248 28.1785 0 0 0
57 2 25.8408 5.47914 29.4465 0 0 -0
58 2 25.8477 5.49729 26.8968 0 0 -0
59 2 26.5085 4.94785 30.7468 0 -0 0
60 2 26.5352 4.97398 25.6192 0 0 -0
64 2 25.9234 5.58594 32.0243 -0 0 -0
65 2 25.8746 5.55252 24.3395 0 0 0
68 2 24.4244 5.31132 32.3613 -0 -0 -0
70 2 23.9981 3.93089 32.8976 0 0 -0
71 2 26.572 5.06145 23.0432 0 -0 0
74 3 26.4735 3.8539 28.1632 0 0 -0
75 3 27.5766 5.2363 28.1728 -0 0 -0
76 3 25.8836 6.56828 29.4403 0 0 0
77 3 24.7938 5.17628 29.434 0 0 0
78 3 25.8955 6.58618 26.9087 -0 0 0
79 3 24.7983 5.20255 26.888 -0 0 -0
80 3 27.5691 5.1942 30.6984 0 0 0
81 3 26.4248 3.86162 30.7814 -0 -0 0
82 3 27.5865 5.26161 25.6323 -0 0 0
83 3 26.4768 3.88587 25.5926 -0 -0 -0
90 3 26.0277 6.66687 31.9304 -0 0 -0
91 3 26.5363 5.28688 32.8745 0 -0 0
92 3 24.8255 5.25757 24.315 0 -0 -0
93 3 25.9181 6.64112 24.3734 -0 -0 0
98 3 23.767 5.64247 31.5574 -0 -0 -0
101 3 22.9478 3.91545 33.1888 0 0 -0
102 3 26.4209 3.98642 22.9454 0 -0 0
103 3 27.6431 5.24684 23.1232 -0 -0 0
639 2 34.1496 4.94283 28.1783 -0 -0 0
640 2 33.4633 5.47945 29.446 -0 -0 -0
641 2 33.4701 5.49799 26.8972 -0 0 0
642 2 34.1308 4.94804 30.7461 -0 0 0
643 2 34.1581 4.97429 25.6208 -0 0 0
647 2 33.5455 5.58604 32.0233 -0 -0 -0
648 2 33.4971 5.55143 24.3413 -0 -0 -0
651 2 32.047 5.3102 32.3599 -0 -0 -0
653 2 31.6211 3.92979 32.8961 -0 0 -0
654 2 34.2029 5.05915 23.0517 0 -0 0
657 3 34.0949 3.8543 28.1635 0 -0 0
659 3 33.5048 6.56864 29.4406 0 0 -0
660 3 32.4164 5.176 29.4341 0 0 0
661 3 33.5163 6.58694 26.9095 -0 0 -0
662 3 32.4211 5.20216 26.8885 0 -0 0
664 3 34.0463 3.86189 30.7813 -0 -0 0
666 3 34.0987 3.88622 25.5948 0 0 0
673 3 33.6488 6.66716 31.9306 -0 0 -0
674 3 34.1575 5.28669 32.8741 0 -0 0
675 3 32.4487 5.25449 24.3139 0 -0 0
676 3 33.5377 6.64018 24.3742 -0 0 0
681 3 31.3864 5.64366 31.5595 -0 0 0
684 3 30.5715 3.91609 33.1899 -0 -0 0
685 3 34.0483 3.98504 22.9494 0 0 0
3 2 26.5266 10.3309 28.1792 0 -0 0
4 2 25.8405 10.8674 29.4471 0 -0 -0
5 2 25.8474 10.8861 26.8977 0 -0 -0
6 2 26.5077 10.3359 30.7474 -0 -0 -0
7 2 26.5352 10.3613 25.6208 -0 0 -0
11 2 25.9232 10.9752 32.0246 0 0 -0
12 2 25.8743 10.9343 24.3392 0 0 -0
15 2 24.4237 10.7031 32.3622 0 0 0
17 2 23.9983 9.32383 32.9012 -0 0 0
18 2 26.5705 10.4392 23.0434 0 0 -0
21 3 26.4729 9.24234 28.163 0 -0 -0
22 3 27.5765 10.624 28.173 0 0 -0
23 3 25.8831 11.9566 29.4406 -0 -0 -0
24 3 24.7937 10.5639 29.4337 -0 0 -0
25 3 25.8948 11.975 26.9087 0 0 0
26 3 24.7983 10.5903 26.8882 0 0 0
27 3 27.5686 10.5815 30.6983 0 -0 0
28 3 26.4236 9.24967 30.7812 0 0 -0
29 3 27.5864 10.6496 25.6327 0 -0 0
30 3 26.4774 9.27316 25.5958 0 -0 -0
37 3 26.0285 12.0559 31.9297 0 -0 -0
38 3 26.5366 10.6764 32.8746 -0 0 -0
39 3 24.8251 10.64 24.3153 -0 0 -0
40 3 25.9186 12.023 24.3691 0 -0 0
45 3 23.7682 11.0272 31.5539 -0 0 -0
48 3 22.946 9.3023 33.1848 0 -0 -0
49 3 26.4218 9.36404 22.9432 -0 0 -0
50 3 27.6413 10.6269 23.1226 -0 -0 -0
533 2 34.1493 15.722 28.1791 0 0 0
536 2 34.1299 15.7263 30.7467 -0 -0 -0
537 2 34.1571 15.7529 25.624 0 0 0
545 2 32.046 16.0935 32.361 0 -0 -0
547 2 31.6216 14.7145 32.9008 0 -0 -0
548 2 34.2014 15.7971 23.063 0 0 -0
551 3 34.0936 14.6335 28.1633 -0 0 -0
554 3 32.4164 15.9533 29.4338 0 -0 0
556 3 32.4207 15.9802 26.8895 -0 -0 0
558 3 34.0444 14.6402 30.7812 0 0 -0
560 3 34.0989 14.6646 25.6023 -0 -0 -0
568 3 34.1575 16.066 32.8741 0 0 -0