ITEM: TIMESTEP
0
ITEM: NUMBER OF ATOMS
1280
ITEM: BOX BOUNDS pp pp pp
0.0000000000000000e+00 4.5735666000000002e+01
0.0000000000000000e+00 3.2339998999999999e+01
0.0000000000000000e+00 4.9056530000000002e+01
ITEM: ATOMS id type xu yu zu vx vy vz
850 5 1.51337 2.02311 4.11591 0 0 -0
851 4 3.73291 1.68262 5.91436 0 0 -0
861 4 0.487384 4.7137 4.19959 -0 0 -0
862 5 1.51668 7.41284 4.11923 0 0 -0
863 4 3.73579 7.06951 5.92154 -0 0 0
864 5 5.82799 5.10603 5.87565 -0 0 -0
922 5 9.13383 2.02302 4.12348 0 0 -0
923 4 11.3635 1.69675 5.93075 -0 0 0
933 4 8.12375 4.71566 4.23324 -0 -0 0
934 5 9.13869 7.41309 4.12813 0 0 0
935 4 11.3666 7.08156 5.94324 0 -0 -0
853 4 7.20441 0.391337 8.29619 -0 0 -0
854 5 2.3318 0.850648 8.23163 -0 -0 -0
855 4 3.38408 0.499123 10.8497 0 -0 0
856 5 6.14104 0.959191 10.8074 0 0 0
865 4 7.21651 5.78161 8.30413 0 0 0
866 5 2.33692 6.23742 8.24098 0 -0 0
867 4 3.39259 5.90481 10.871 -0 0 0
868 5 6.15028 6.35477 10.8093 -0 -0 0
926 5 9.96382 0.833696 8.23575 0 0 0
927 4 11.0197 0.531704 10.8851 0 -0 0
938 5 9.97779 6.21745 8.25562 -0 -0 0
939 4 11.0431 5.94639 10.9388 -0 -0 -0
857 4 7.57252 1.72161 13.2036 -0 0 0
860 5 5.20789 2.01152 14.8076 0 -0 -0
869 4 7.5912 7.082 13.2288 0 0 0
870 5 1.96125 5.01924 13.158 -0 0 -0
871 4 4.2404 4.71074 14.9176 0 -0 0
872 5 5.17709 7.40441 14.7506 0 -0 -0
942 5 9.5396 4.94232 13.1429 -0 -0 -0
796 1 11.1999 5.15445 20.673 -0 0 0
797 1 9.45595 5.69073 21.7077 0 -0 0
807 2 10.6249 5.55043 24.3446 -0 -0 -0
813 2 11.3082 5.06133 23.0377 -0 -0 0
815 2 10.7856 5.78827 21.7663 0 -0 -0
834 3 9.57504 5.25816 24.3243 -0 -0 -0
835 3 10.6744 6.63883 24.3765 -0 0 -0
844 3 11.1662 3.98474 22.9432 0 0 0
798 2 11.2819 4.94186 28.1706 -0 -0 0
799 2 10.596 5.47979 29.4519 -0 0 -0
800 2 10.6016 5.49685 26.9011 -0 -0 0
802 2 11.2893 4.97207 25.6158 -0 0 -0
816 3 11.2291 3.85316 28.1638 -0 -0 0
818 3 10.6406 6.56881 29.4397 0 -0 -0
819 3 9.54924 5.17634 29.435 -0 0 -0
820 3 10.6521 6.58565 26.9088 0 0 -0
821 3 9.55199 5.20304 26.8892 0 -0 -0
825 3 11.2327 3.88375 25.5943 -0 -0 -0
455 3 10.2424 7.31321 36.2982 -0 0 0
468 3 9.27754 7.57331 34.0035 0 0 0
801 2 11.269 4.94771 30.7353 0 0 0
803 2 10.649 2.93377 36.2496 -0 -0 0
805 2 9.7556 3.80566 35.3359 0 0 0
806 2 10.6739 5.58199 32.0256 0 -0 0
809 2 9.66312 3.19261 33.9072 0 0 -0
810 2 9.18214 5.30764 32.3472 0 -0 0
812 2 8.74922 3.92362 32.9013 -0 0 0
823 3 11.1877 3.86158 30.7778 0 -0 -0
826 3 10.2438 1.92298 36.2973 -0 0 0
830 3 8.75621 3.87343 35.7657 0 -0 -0
831 3 10.1746 4.81022 35.2774 0 0 0
832 3 10.781 6.66267 31.9321 0 -0 0
833 3 11.2911 5.28096 32.8721 -0 -0 -0
838 3 10.665 3.11991 33.4841 -0 -0 -0
839 3 9.27982 2.17577 33.9921 -0 -0 -0
840 3 8.51314 5.65176 31.5585 0 -0 -0
843 3 7.70086 3.918 33.1996 -0 0 0
465 3 11.1246 6.9789 38.6452 -0 -0 0
804 2 10.7514 3.50158 37.6929 -0 0 -0
828 3 9.74333 3.61557 38.0914 0 0 -0
829 3 11.2099 4.4899 37.659 0 0 0
836 3 11.1258 1.58935 38.6441 -0 0 0
837 3 11.4326 2.98816 39.6655 -0 -0 -0
873 4 0.490466 10.1035 4.19928 0 0 -0
874 5 1.51853 12.8034 4.11947 0 0 -0
875 4 3.73709 12.4552 5.92361 -0 -0 -0
876 5 5.83124 10.4953 5.87627 0 -0 -0
885 4 0.490624 15.493 4.19754 0 -0 -0
888 5 5.83229 15.8888 5.87424 -0 -0 0
945 4 8.1277 10.1058 4.23504 0 0 -0
946 5 9.14184 12.8042 4.12733 0 0 -0
947 4 11.3684 12.4647 5.94583 0 0 0
957 4 8.12728 15.4948 4.23247 0 0 0
877 4 7.22215 11.1586 8.30994 -0 -0 -0
878 5 2.33735 11.6296 8.24374 -0 0 0
879 4 3.39713 11.2849 10.8745 -0 -0 0
880 5 6.14611 11.7752 10.7984 0 0 0
950 5 9.98006 11.6125 8.26092 -0 -0 0
951 4 11.0571 11.3155 10.9499 0 0 0
881 4 7.57939 12.4377 13.239 0 0 -0
882 5 1.96252 10.4075 13.1593 -0 0 -0
883 4 4.23901 10.1021 14.9347 -0 0 -0
884 5 5.16355 12.8031 14.7398 0 0 -0
894 5 1.9711 15.8182 13.1633 0 -0 -0
895 4 4.23376 15.495 14.945 -0 0 -0
954 5 9.53564 10.3306 13.1415 0 0 0
966 5 9.55123 15.7547 13.1497 -0 0 0
389 2 11.3035 15.8258 23.0387 0 -0 0
410 3 9.57406 16.03 24.3266 -0 -0 0
420 3 11.1712 14.7476 22.948 0 0 0
425 1 11.1989 10.6539 20.6343 -0 0 -0
426 1 9.44337 11.1889 21.7181 -0 -0 -0
436 2 10.6245 10.9345 24.3447 0 -0 0
442 2 11.3044 10.4432 23.0367 -0 -0 0
444 2 10.7778 11.1856 21.7754 0 -0 -0
463 3 9.57445 10.6427 24.3255 -0 -0 0
464 3 10.6749 12.023 24.3741 0 0 0
473 3 11.1664 9.36622 22.9413 -0 -0 -0
372 1 11.2111 16.1156 20.6141 -0 -0 -0
374 2 11.2816 15.721 28.1714 0 -0 0
378 2 11.2894 15.7503 25.6179 0 0 -0
392 3 11.2285 14.6323 28.1634 0 0 0
395 3 9.54925 15.9539 29.4347 -0 0 -0
397 3 9.55219 15.9808 26.8897 0 0 0
401 3 11.2333 14.6619 25.5981 -0 0 0
427 2 11.2816 10.3303 28.1712 -0 0 0
428 2 10.5957 10.8682 29.4524 -0 -0 -0
429 2 10.6014 10.8857 26.9018 0 -0 0
431 2 11.2893 10.3599 25.617 -0 0 -0
445 3 11.2289 9.24158 28.1635 -0 -0 0
447 3 10.6405 11.9572 29.4399 -0 -0 0
448 3 9.54903 10.5644 29.4348 -0 0 0
449 3 10.6517 11.9745 26.909 -0 -0 0
450 3 9.55197 10.5912 26.8894 -0 0 -0
454 3 11.2332 9.2715 25.5963 -0 0 0
377 2 11.2681 15.7261 30.7358 0 -0 -0
379 2 10.6486 13.7136 36.251 -0 0 -0
381 2 9.75448 14.5892 35.3414 -0 -0 -0
385 2 9.66159 13.98 33.9142 0 0 -0
386 2 9.18126 16.0907 32.3489 0 -0 -0
388 2 8.74964 14.7076 32.9052 0 -0 0
399 3 11.1864 14.6399 30.7775 -0 -0 -0
402 3 10.2424 12.7032 36.2981 0 -0 -0
406 3 8.75461 14.6552 35.7704 -0 0 -0
407 3 10.1744 15.5933 35.2822 -0 -0 0
409 3 11.2915 16.0599 32.872 -0 0 0
414 3 10.665 13.9097 33.4944 0 0 -0
415 3 9.27723 12.9639 34.0031 -0 0 0
419 3 7.69914 14.6942 33.1957 -0 -0 -0
430 2 11.2683 10.3359 30.7357 0 0 0
432 2 10.6484 8.32363 36.2509 -0 0 -0
434 2 9.75427 9.19915 35.3412 0 -0 0
435 2 10.6737 10.9711 32.0259 0 -0 0
438 2 9.66142 8.58954 33.914 0 -0 0
439 2 9.18158 10.6989 32.3484 -0 0 -0
441 2 8.74931 9.31557 32.9039 -0 -0 0
452 3 11.1871 9.2497 30.7776 -0 -0 0
459 3 8.75444 9.26551 35.7702 -0 -0 -0
460 3 10.1742 10.2033 35.2818 -0 0 -0
461 3 10.7817 12.0516 31.9316 -0 0 -0
462 3 11.2916 10.6704 32.872 -0 0 0
467 3 10.6651 8.51985 33.4946 0 0 -0
469 3 8.51439 11.0379 31.5559 0 0 0
472 3 7.69961 9.306 33.1974 -0 -0 0
380 2 10.7518 14.2808 37.6939 -0 -0 0
404 3 9.74365 14.3948 38.0922 -0 -0 0
405 3 11.2105 15.269 37.6595 -0 0 -0
412 3 11.1248 12.3689 38.6451 -0 -0 0
413 3 11.4332 13.7677 39.6659 -0 -0 -0
433 2 10.7518 8.89076 37.6938 -0 0 -0
457 3 9.74366 9.00493 38.0922 0 0 -0
458 3 11.2105 9.87897 37.6594 0 0 0
466 3 11.4332 8.37781 39.6658 -0 -0 -0
886 5 1.51759 18.1937 4.11742 -0 0 -0
887 4 3.73574 17.8437 5.92075 -0 0 -0
897 4 0.488111 20.8826 4.19633 -0 -0 0
898 5 1.51446 23.5839 4.1149 0 -0 -0
899 4 3.73326 23.2369 5.91496 -0 -0 0
900 5 5.82919 21.2822 5.86973 0 0 0
958 5 9.14106 18.1946 4.12425 -0 0 0
959 4 11.3661 17.8508 5.94187 -0 0 -0
969 4 8.12343 20.8835 4.2279 0 0 -0
970 5 9.13684 23.5841 4.12124 0 0 0
971 4 11.3624 23.2446 5.93382 -0 -0 0
889 4 7.22137 16.5361 8.31082 -0 -0 0
890 5 2.33528 17.0256 8.24201 -0 -0 -0
891 4 3.39854 16.654 10.864 -0 0 -0
892 5 6.13973 17.1857 10.7897 -0 -0 0
901 4 7.21334 21.9261 8.30327 0 -0 -0
902 5 2.33159 22.419 8.23525 0 0 -0
903 4 3.39225 22.0263 10.8463 0 -0 0
904 5 6.13189 22.569 10.7867 -0 -0 0
962 5 9.97533 17.0147 8.26044 -0 -0 -0
963 4 11.0627 16.6664 10.9306 -0 0 0
974 5 9.96606 22.4107 8.25026 0 -0 -0
975 4 11.0526 22.0172 10.8906 0 -0 -0
893 4 7.55663 17.7989 13.2384 -0 -0 -0
896 5 5.16668 18.2008 14.7585 0 0 -0
905 4 7.53496 23.1891 13.2232 0 -0 0
906 5 1.98158 21.2401 13.1692 -0 -0 -0
907 4 4.2313 20.8881 14.9435 -0 -0 0
908 5 5.19005 23.5948 14.8054 0 -0 -0
978 5 9.5786 21.2074 13.1654 0 -0 0
319 1 11.2765 21.6622 20.5885 -0 -0 -0
320 1 9.44656 22.2106 21.7337 -0 0 0
330 2 10.6222 21.7047 24.3453 0 -0 -0
336 2 11.304 21.1901 23.0487 0 0 -0
338 2 10.7339 21.8643 21.7766 0 0 0
357 3 9.5716 21.4147 24.3291 0 -0 -0
358 3 10.6754 22.7932 24.3632 -0 0 0
367 3 11.1984 20.107 22.9862 -0 0 0
411 3 10.6749 17.4103 24.3716 -0 0 -0
373 1 9.44046 16.6553 21.7235 -0 0 0
383 2 10.6241 16.3218 24.3449 -0 0 -0
391 2 10.7719 16.5671 21.7804 0 -0 -0
321 2 11.2814 21.1102 28.1723 0 -0 0
322 2 10.5948 21.6486 29.4535 -0 0 -0
323 2 10.6006 21.6659 26.9032 -0 -0 -0
325 2 11.2889 21.1395 25.6195 -0 -0 -0
339 3 11.2278 20.0216 28.1645 0 0 0
341 3 10.6384 22.7376 29.4406 -0 -0 0
342 3 9.54888 21.3424 29.4357 0 -0 0
343 3 10.6497 22.7547 26.9103 0 -0 -0
344 3 9.55196 21.3688 26.8908 -0 0 -0
348 3 11.2335 20.051 25.6021 0 0 -0
375 2 10.5956 16.2586 29.4526 -0 -0 0
376 2 10.6012 16.2766 26.9022 0 -0 -0
394 3 10.6399 17.3477 29.4403 -0 0 -0
396 3 10.6509 17.3655 26.9093 0 0 -0
324 2 11.2658 21.12 30.7389 0 -0 -0
326 2 10.6483 19.1025 36.2508 -0 -0 -0
328 2 9.75408 19.9781 35.3412 -0 0 0
329 2 10.6717 21.7575 32.0311 0 0 0
332 2 9.66187 19.3697 33.9135 0 0 -0
333 2 9.17935 21.4874 32.3563 0 0 0
335 2 8.75125 20.0991 32.9041 -0 0 -0
346 3 11.1842 20.0339 30.7811 0 -0 0
349 3 10.2422 18.0921 36.2977 -0 0 -0
353 3 8.75403 20.043 35.7699 -0 0 -0
354 3 10.1729 20.9828 35.2835 -0 -0 0
355 3 10.7801 22.839 31.9488 -0 0 0
356 3 11.2896 21.4486 32.8742 0 0 0
361 3 10.6656 19.2985 33.4945 -0 0 0
362 3 9.27702 18.3538 34.0024 0 0 -0
363 3 8.51453 21.8134 31.5564 -0 -0 -0
366 3 7.701 20.0826 33.1953 -0 -0 0
382 2 10.6737 16.3615 32.0261 0 0 -0
408 3 10.7826 17.4419 31.9319 -0 -0 -0
416 3 8.51454 16.4256 31.5543 -0 0 0
327 2 10.751 19.6691 37.6941 -0 -0 -0
351 3 9.74268 19.782 38.0923 0 0 -0
352 3 11.2084 20.658 37.6611 0 0 -0
359 3 11.1246 17.7572 38.6449 -0 0 -0
360 3 11.4327 19.1558 39.6659 0 -0 -0
849 4 0.484535 -0.67645 4.19879 0 0 0
852 5 5.82352 -0.281169 5.87026 -0 -0 -0
909 4 0.485123 26.2729 4.19727 -0 -0 0
910 5 1.51207 28.9738 4.11362 0 0 -0
911 4 3.73168 28.6315 5.91062 0 -0 -0
912 5 5.82353 26.6715 5.86604 0 -0 -0
921 4 8.11985 -0.67546 4.22913 0 -0 0
981 4 8.11997 26.2733 4.22623 0 -0 -0
982 5 9.13274 28.9737 4.11965 -0 -0 -0
983 4 11.3615 28.6437 5.9253 0 0 0
913 4 7.20191 27.3284 8.29393 -0 0 0
914 5 2.32839 27.8062 8.22751 0 -0 0
915 4 3.38196 27.4209 10.8355 -0 0 0
916 5 6.12848 27.9325 10.7929 0 -0 -0
986 5 9.95663 27.7948 8.2307 0 0 -0
987 4 11.0237 27.4197 10.8569 0 -0 0
858 5 1.96635 -0.337629 13.1591 0 0 0
859 4 4.23335 -0.676297 14.9005 0 -0 0
917 4 7.5383 28.6387 13.1977 -0 0 -0
918 5 1.97867 26.6434 13.1669 -0 0 0
919 4 4.23024 26.2787 14.9172 0 0 0
920 5 5.21922 28.9751 14.8456 -0 -0 0
930 5 9.55223 -0.379957 13.145 -0 -0 -0
990 5 9.57741 26.6353 13.1608 -0 -0 -0
936 5 13.4518 5.1086 5.85298 -0 -0 0
994 5 16.7696 2.02261 4.10433 0 -0 0
995 4 18.9816 1.69687 5.92481 0 -0 -0
1005 4 15.7513 4.71518 4.22874 0 0 -0
1006 5 16.7759 7.41282 4.10745 0 0 0
1007 4 18.9871 7.08308 5.93389 0 -0 -0
1008 5 21.0877 5.12312 5.83532 -0 -0 0
925 4 14.834 0.375117 8.29145 0 0 -0
928 5 13.7809 0.958213 10.7898 0 -0 -0
937 4 14.851 5.76554 8.28546 0 -0 -0
940 5 13.8051 6.35639 10.7745 0 0 0
997 4 22.4516 0.375667 8.28137 -0 -0 0
998 5 17.5986 0.813858 8.22037 -0 0 -0
999 4 18.6374 0.559943 10.8871 -0 0 -0
1000 5 21.4136 0.951552 10.78 -0 0 -0
1009 4 22.4677 5.76683 8.27299 -0 -0 -0
1010 5 17.6182 6.19535 8.23536 -0 -0 -0
1011 4 18.6614 5.98081 10.9404 0 -0 0
1012 5 21.441 6.34806 10.765 -0 0 0
929 4 15.1766 1.7235 13.2086 0 -0 0
932 5 12.7814 2.02074 14.7388 0 -0 -0
941 4 15.187 7.05354 13.2362 0 -0 0
943 4 11.7915 4.73642 15.065 -0 0 -0
944 5 12.728 7.4172 14.6265 -0 0 0
1001 4 22.7684 1.69076 13.2142 0 -0 0
1004 5 20.4094 2.02279 14.7576 0 0 0
1013 4 22.7772 7.01537 13.2426 0 -0 0
1014 5 17.1848 4.94176 13.1309 -0 -0 -0
1015 4 19.3652 4.74536 15.1128 -0 0 0
1016 5 20.3556 7.42138 14.645 -0 0 0
266 1 18.9043 5.15745 20.6813 0 0 -0
267 1 17.1227 5.65725 21.6781 0 0 0
277 2 18.2497 5.55045 24.3434 0 -0 -0
283 2 18.9425 5.05985 23.0414 0 -0 0
285 2 18.4387 5.78431 21.7624 -0 -0 0
304 3 17.2001 5.25736 24.3196 -0 -0 0
305 3 18.2959 6.63902 24.3747 0 -0 -0
314 3 18.7959 3.98395 22.9462 -0 -0 -0
315 3 20.0131 5.2485 23.12 0 0 -0
845 3 12.3789 5.25218 23.1094 -0 -0 -0
268 2 18.9047 4.94195 28.171 0 -0 -0
269 2 18.2186 5.47978 29.4522 0 0 0
270 2 18.2242 5.49707 26.9014 0 0 0
272 2 18.9122 4.97262 25.6163 0 0 0
286 3 18.851 3.8533 28.1637 0 -0 -0
287 3 19.9541 5.23666 28.1725 0 0 -0
288 3 18.2622 6.56884 29.4394 -0 -0 -0
289 3 17.1718 5.17633 29.4344 0 -0 0
290 3 18.2734 6.58593 26.9086 -0 0 0
291 3 17.1747 5.20309 26.8886 -0 -0 -0
294 3 19.963 5.26182 25.6327 0 -0 -0
295 3 18.8547 3.88436 25.5946 -0 0 -0
817 3 12.3313 5.23668 28.1723 0 -0 0
824 3 12.34 5.26169 25.6315 0 0 0
243 3 17.8637 7.31286 36.2987 0 -0 0
256 3 16.8979 7.57379 34.0033 -0 0 0
271 2 18.8913 4.94771 30.7357 0 0 0
273 2 18.2707 2.93349 36.2505 -0 -0 0
275 2 17.3771 3.80545 35.3373 0 -0 0
276 2 18.2959 5.58239 32.0259 0 0 0
279 2 17.2846 3.19287 33.9086 -0 0 -0
280 2 16.8041 5.30866 32.3475 0 -0 -0
282 2 16.3712 3.92557 32.9039 -0 0 -0
292 3 19.9516 5.19729 30.6967 -0 0 -0
293 3 18.8092 3.86163 30.7779 0 0 -0
296 3 17.8653 1.92277 36.2977 -0 0 0
297 3 19.2677 2.87714 35.8137 0 0 0
300 3 16.3776 3.87318 35.7666 0 -0 0
301 3 17.7959 4.81007 35.2782 -0 0 -0
302 3 18.4025 6.66305 31.9314 -0 -0 0
303 3 18.9131 5.28176 32.8725 0 -0 -0
308 3 18.2861 3.1203 33.4845 0 0 0
309 3 16.9006 2.17617 33.992 0 0 -0
310 3 16.1355 5.64988 31.5571 0 0 -0
313 3 15.3212 3.91714 33.1961 -0 0 0
822 3 12.3293 5.19744 30.6965 -0 0 -0
827 3 11.6462 2.87722 35.8133 0 0 -0
225 2 19.1733 7.98169 38.6576 -0 -0 -0
228 2 20.6895 7.90326 38.3269 0 -0 0
231 2 21.4655 7.07915 39.3724 0 -0 -0
253 3 18.7465 6.97882 38.6454 0 -0 -0
258 3 20.8346 7.43809 37.3519 0 -0 -0
263 3 21.081 6.05985 39.4085 -0 0 -0
264 3 21.3677 7.53253 40.3588 -0 0 0
265 3 22.5216 7.04597 39.1046 0 -0 0
274 2 18.373 3.50138 37.6937 0 0 -0
278 2 19.1733 2.59277 38.6571 -0 0 -0
281 2 20.6898 2.51545 38.3274 -0 0 -0
284 2 21.4659 1.69123 39.3729 -0 -0 -0
298 3 17.3647 3.61518 38.0918 0 0 -0
299 3 18.8311 4.48983 37.6594 -0 0 0
306 3 18.7477 1.58934 38.6443 0 0 0
307 3 19.0544 2.98805 39.666 0 -0 -0
311 3 20.8355 2.0504 37.3524 0 -0 -0
312 3 21.1057 3.52222 38.2873 0 0 -0
316 3 21.0821 0.671613 39.4082 -0 0 0
317 3 21.3675 2.14383 40.3596 -0 -0 0
318 3 22.5221 1.65844 39.1055 0 -0 -0
437 2 11.5513 7.98184 38.6571 0 -0 -0
440 2 13.0675 7.90326 38.3267 0 0 0
443 2 13.843 7.07911 39.3724 -0 -0 0
470 3 13.213 7.43806 37.3517 0 0 0
475 3 13.4587 6.05975 39.4086 -0 0 -0
476 3 13.7453 7.53253 40.3588 0 -0 0
477 3 14.8991 7.04592 39.1048 -0 0 0
808 2 11.5512 2.59284 38.6567 -0 0 0
811 2 13.0677 2.51542 38.3272 0 0 0
814 2 13.8434 1.69116 39.3729 -0 -0 -0
841 3 13.2137 2.05032 37.3523 -0 0 -0
842 3 13.4838 3.52208 38.2874 0 -0 -0
846 3 13.4598 0.671494 39.4083 0 -0 0
847 3 13.7452 2.14381 40.3596 0 -0 -0
848 3 14.8996 1.65837 39.1057 0 0 -0
948 5 13.4564 10.4972 5.85054 -0 -0 0
960 5 13.4583 15.892 5.84944 -0 -0 0
1017 4 15.7564 10.1055 4.22861 -0 -0 -0
1018 5 16.7803 12.8045 4.1042 -0 -0 0
1019 4 18.9902 12.4662 5.93316 -0 -0 -0
1020 5 21.0928 10.511 5.83123 0 0 -0
1029 4 15.7559 15.4943 4.22596 -0 -0 0
1032 5 21.0947 15.9054 5.83013 0 -0 -0
949 4 14.8593 11.1348 8.28941 -0 -0 -0
952 5 13.8048 11.797 10.7534 0 0 -0
1021 4 22.4768 11.1355 8.2745 -0 0 -0
1022 5 17.6224 11.5907 8.23687 0 0 0
1023 4 18.6777 11.3533 10.9484 0 -0 0
1024 5 21.4446 11.7906 10.7421 0 -0 -0
953 4 15.1636 12.3798 13.2536 -0 0 0
955 4 11.7769 10.1141 15.122 0 0 0
956 5 12.7037 12.8075 14.6106 -0 0 0
967 4 11.77 15.4935 15.1346 -0 0 -0
1025 4 22.7524 12.3332 13.2618 -0 -0 -0
1026 5 17.1918 10.3336 13.1284 0 -0 -0
1027 4 19.3432 10.1204 15.1752 0 0 0
1028 5 20.3333 12.8124 14.6313 0 0 -0
1038 5 17.2142 15.7668 13.1384 -0 -0 -0
1039 4 19.3382 15.4945 15.1884 0 0 0
177 2 18.9388 15.8155 23.0455 0 0 0
198 3 17.1986 16.0276 24.3219 -0 0 -0
208 3 18.8071 14.7368 22.9606 0 0 -0
209 3 20.007 16.0212 23.1141 -0 -0 0
213 1 18.9157 10.6662 20.6386 0 -0 -0
214 1 17.1175 11.1898 21.6851 -0 0 0
224 2 18.2494 10.9334 24.3433 -0 0 -0
230 2 18.9404 10.4384 23.0418 0 0 0
232 2 18.4392 11.1789 21.771 -0 -0 -0
251 3 17.1996 10.6409 24.3202 0 0 -0
252 3 18.2964 12.022 24.3708 0 -0 0
261 3 18.7979 9.36192 22.9465 -0 0 0
262 3 20.0105 10.6311 23.118 0 -0 0
421 3 12.3729 16.0264 23.1034 -0 -0 0
474 3 12.3747 10.6374 23.1053 -0 -0 -0
160 1 18.9302 16.145 20.6107 0 -0 0
162 2 18.9044 15.7214 28.1719 -0 -0 -0
166 2 18.9121 15.7512 25.619 0 -0 -0
180 3 18.8499 14.6328 28.1632 -0 -0 -0
181 3 19.9543 16.0142 28.1728 0 -0 0
183 3 17.1719 15.9535 29.434 0 -0 0
185 3 17.1749 15.9806 26.8892 -0 0 -0
188 3 19.9629 16.0404 25.6334 -0 0 -0
189 3 18.8552 14.6628 25.6 -0 0 0
215 2 18.9044 10.3305 28.1717 0 -0 -0
216 2 18.2182 10.8682 29.4528 -0 -0 0
217 2 18.2239 10.8861 26.9023 0 -0 -0
219 2 18.9122 10.3605 25.6179 -0 -0 0
233 3 18.8505 9.24187 28.1634 -0 0 0
234 3 19.954 10.6245 28.1726 -0 0 -0
235 3 18.2618 11.9573 29.4397 -0 0 -0
236 3 17.1716 10.5642 29.434 0 -0 -0
237 3 18.2727 11.975 26.9087 -0 0 -0
238 3 17.1747 10.591 26.8887 -0 0 -0
241 3 19.9629 10.65 25.633 0 -0 -0
242 3 18.8551 9.27217 25.5974 0 0 -0
393 3 12.3314 16.0142 28.1726 0 -0 -0
400 3 12.3401 16.04 25.6319 -0 -0 0
446 3 12.3311 10.6246 28.1724 -0 -0 -0
453 3 12.3399 10.6498 25.6316 -0 -0 -0
165 2 18.8902 15.7261 30.7364 0 -0 0
167 2 18.2703 13.7131 36.2521 0 -0 0
169 2 17.3761 14.5888 35.3431 0 0 -0
173 2 17.283 13.9804 33.9159 0 0 -0
174 2 16.8029 16.0929 32.3495 0 0 0
176 2 16.3718 14.7109 32.9091 -0 -0 0
186 3 19.9509 15.974 30.6966 0 0 -0
187 3 18.8073 14.6401 30.7776 -0 0 -0
190 3 17.8638 12.7028 36.2986 -0 0 -0
191 3 19.2666 13.6555 35.8137 0 0 0
194 3 16.3759 14.6547 35.7715 -0 -0 -0
195 3 17.7957 15.593 35.2833 -0 -0 -0
197 3 18.9133 16.0607 32.8725 -0 0 0
202 3 18.2859 13.91 33.4947 0 0 -0
203 3 16.8974 12.9646 34.0027 -0 0 0
207 3 15.3188 14.6916 33.1901 0 -0 0
218 2 18.8905 10.3359 30.7363 0 0 -0
220 2 18.2701 8.32319 36.2519 -0 -0 0
222 2 17.3758 9.1988 35.3427 -0 0 0
223 2 18.2957 10.9716 32.0263 0 -0 -0
226 2 17.2828 8.58979 33.9156 -0 0 -0
227 2 16.8033 10.7005 32.3489 0 -0 -0
229 2 16.3714 9.31818 32.9072 0 0 -0
239 3 19.951 10.5849 30.6965 -0 -0 0
240 3 18.8082 9.24977 30.7777 -0 -0 -0
244 3 19.2665 8.26586 35.8136 0 -0 -0
247 3 16.3757 9.26508 35.7712 0 -0 0
248 3 17.7954 10.203 35.2828 -0 0 0
249 3 18.4033 12.0521 31.9308 -0 -0 -0
250 3 18.9135 10.6712 32.8726 -0 -0 0
255 3 18.2859 8.52014 33.4949 -0 0 -0
257 3 16.1369 11.0347 31.5537 -0 -0 -0
260 3 15.3195 9.30411 33.1925 -0 -0 0
398 3 12.3287 15.9745 30.6964 0 0 0
403 3 11.6451 13.6558 35.8133 -0 0 0
451 3 12.3287 10.5852 30.6963 0 0 0
456 3 11.6451 8.26608 35.8132 0 -0 0
168 2 18.3734 14.2805 37.6947 -0 -0 0
172 2 19.1734 13.3717 38.6577 -0 -0 -0
175 2 20.6896 13.2933 38.327 0 -0 0
178 2 21.4655 12.4692 39.3725 -0 -0 -0
192 3 17.365 14.3942 38.0926 -0 -0 -0
193 3 18.8317 15.2688 37.6599 0 -0 0
200 3 18.7466 12.3688 38.6453 0 -0 0
201 3 19.055 13.7675 39.6664 0 -0 0
205 3 20.8345 12.8279 37.3521 0 -0 0
206 3 21.1058 14.2999 38.2863 -0 0 0
210 3 21.081 11.4499 39.4084 -0 0 0
211 3 21.3677 12.9224 40.3589 -0 -0 -0
212 3 22.5216 12.4359 39.1046 -0 -0 -0
221 2 18.3733 8.89046 37.6946 -0 -0 0
245 3 17.365 9.00443 38.0926 -0 -0 0
246 3 18.8316 9.87881 37.6598 -0 -0 -0
254 3 19.055 8.37764 39.6663 -0 0 0
259 3 21.1057 8.90989 38.2865 -0 -0 -0
384 2 11.5513 13.3719 38.6572 0 -0 0
387 2 13.0675 13.2933 38.3267 -0 -0 -0
390 2 13.843 12.4691 39.3724 0 -0 -0
417 3 13.2129 12.8279 37.3519 0 0 -0
418 3 13.484 14.2998 38.2864 0 -0 -0
422 3 13.4587 11.4498 39.4085 -0 0 -0
423 3 13.7454 12.9224 40.3589 -0 0 -0
424 3 14.8991 12.4358 39.1047 0 0 0
471 3 13.4839 8.90978 38.2866 0 -0 -0
972 5 13.455 21.288 5.8497 0 0 0
1030 5 16.7791 18.1951 4.10036 0 -0 -0
1031 4 18.9877 17.8515 5.92791 0 -0 0
1041 4 15.7506 20.8826 4.22355 0 -0 0
1042 5 16.7732 23.5846 4.09884 -0 -0 -0
1043 4 18.9826 23.2446 5.92173 0 0 0
1044 5 21.0908 21.3015 5.8319 0 0 0
961 4 14.8594 16.505 8.29345 0 0 0
964 5 13.796 17.2247 10.74 -0 -0 -0
973 4 14.8491 21.8954 8.29214 0 -0 0
976 5 13.7788 22.6146 10.7421 -0 0 0
1033 4 22.4781 16.5048 8.27808 0 -0 -0
1034 5 17.6168 16.995 8.23582 -0 0 -0
1035 4 18.6865 16.7004 10.9246 0 -0 0
1036 5 21.4375 17.2223 10.7269 -0 -0 0
1045 4 22.4691 21.8948 8.27819 0 -0 0
1046 5 17.6044 22.3926 8.2283 0 0 0
1047 4 18.6788 22.0437 10.8824 0 0 0
1048 5 21.4196 22.6142 10.7284 -0 -0 -0
965 4 15.1382 17.7271 13.2526 -0 -0 0
968 5 12.7108 18.1985 14.638 -0 0 0
977 4 15.1206 23.116 13.2354 -0 0 -0
979 4 11.7754 20.8749 15.1112 0 -0 0
980 5 12.7551 23.588 14.7226 -0 0 -0
1037 4 22.7278 17.6765 13.2615 0 -0 -0
1040 5 20.3431 18.2037 14.6614 0 0 0
1049 4 22.7123 23.0675 13.2447 -0 -0 -0
1050 5 17.242 21.227 13.1569 -0 0 -0
1051 4 19.3528 20.8725 15.1621 -0 -0 0
1052 5 20.3872 23.5928 14.7433 -0 -0 0
107 1 19.0067 21.7632 20.6111 -0 -0 0
108 1 17.1596 22.3561 21.7371 -0 -0 0
118 2 18.2434 21.7038 24.3411 -0 0 0
124 2 18.9323 21.1764 23.0519 -0 0 -0
126 2 18.2942 21.6637 21.7272 -0 0 0
145 3 17.1929 21.4133 24.3256 -0 0 -0
146 3 18.2961 22.7925 24.352 0 -0 -0
155 3 18.8603 20.0889 23.0349 0 -0 0
156 3 19.9885 21.4443 23.0773 0 0 -0
368 3 12.3676 21.4239 23.0939 -0 -0 -0
161 1 17.1144 16.698 21.6943 -0 0 0
171 2 18.2485 16.3197 24.3434 0 0 -0
179 2 18.4282 16.5443 21.7744 0 0 0
199 3 18.2968 17.4083 24.3664 0 0 0
109 2 18.9041 21.1107 28.1724 0 0 0
110 2 18.2174 21.6487 29.4538 -0 -0 -0
111 2 18.2231 21.6668 26.9032 -0 -0 0
113 2 18.9106 21.1419 25.6187 -0 -0 0
127 3 18.8494 20.0221 28.1641 0 0 0
128 3 19.9544 21.4024 28.1736 0 0 0
129 3 18.2598 22.7377 29.4404 0 0 -0
130 3 17.1716 21.342 29.435 -0 -0 0
131 3 18.2707 22.7558 26.9099 -0 -0 0
132 3 17.1747 21.3687 26.8902 -0 -0 0
135 3 19.9616 21.4308 25.6318 -0 -0 0
136 3 18.855 20.0534 25.6032 0 0 -0
163 2 18.2181 16.2588 29.453 -0 -0 0
164 2 18.2236 16.2774 26.9028 -0 0 -0
182 3 18.2612 17.3478 29.4402 0 -0 -0
184 3 18.2718 17.3663 26.9092 -0 -0 0
340 3 12.3315 21.4025 28.1736 0 -0 -0
347 3 12.3395 21.4294 25.6325 -0 -0 0
112 2 18.888 21.12 30.7394 -0 0 -0
114 2 18.2702 19.1018 36.2517 0 0 -0
116 2 17.3759 19.9776 35.3427 -0 0 -0
117 2 18.2938 21.7581 32.0314 -0 -0 0
120 2 17.2835 19.37 33.915 0 -0 0
121 2 16.8011 21.4895 32.3569 -0 0 -0
123 2 16.3736 20.1023 32.9077 -0 0 0
133 3 19.9492 21.3657 30.6989 0 -0 0
134 3 18.8052 20.034 30.7811 0 -0 0
137 3 17.8637 18.0915 36.2981 0 0 -0
138 3 19.2666 19.0442 35.8136 0 -0 0
141 3 16.3756 20.0422 35.7709 -0 -0 0
142 3 17.7945 20.9824 35.2845 -0 0 0
143 3 18.4024 22.8395 31.9482 0 -0 -0
144 3 18.9116 21.4491 32.8746 -0 -0 -0
149 3 18.2866 19.2987 33.4947 -0 0 -0
150 3 16.8974 18.3544 34.0019 -0 -0 0
151 3 16.1373 21.8094 31.5537 0 -0 0
154 3 15.321 20.0796 33.1899 -0 0 -0
170 2 18.2957 16.3622 32.0265 -0 0 0
196 3 18.4044 17.4425 31.9312 -0 0 0
204 3 16.1371 16.4217 31.5515 0 0 -0
345 3 12.3269 21.3662 30.6988 0 0 -0
350 3 11.6449 19.0447 35.8133 -0 0 -0
115 2 18.3728 19.6687 37.6948 0 -0 -0
119 2 19.1731 18.76 38.6576 -0 0 -0
122 2 20.6894 18.6823 38.3271 -0 0 -0
125 2 21.4655 17.8582 39.3726 0 -0 -0
139 3 17.3642 19.7812 38.0926 0 -0 -0
140 3 18.8298 20.6577 37.6614 -0 0 -0
147 3 18.7466 17.757 38.6451 0 -0 0
148 3 19.0546 19.1555 39.6664 0 0 0
152 3 20.8348 18.2172 37.3521 0 0 0
153 3 21.1052 19.6891 38.2874 0 0 0
157 3 21.0811 16.8389 39.4085 0 0 -0
158 3 21.3677 18.3114 40.3591 -0 0 0
159 3 22.5216 17.825 39.1047 -0 0 -0
331 2 11.551 18.7603 38.6571 -0 -0 -0
334 2 13.0672 18.6824 38.3269 0 0 0
337 2 13.843 17.8582 39.3725 0 0 -0
364 3 13.213 18.2172 37.352 -0 -0 0
365 3 13.4833 19.689 38.2875 -0 0 -0
369 3 13.4587 16.8388 39.4086 0 -0 0
370 3 13.7453 18.3114 40.359 0 0 -0
371 3 14.8991 17.825 39.1048 -0 -0 -0
924 5 13.4482 -0.274627 5.85557 0 -0 0
984 5 13.4493 26.6798 5.85296 0 0 -0
993 4 15.7458 -0.676089 4.22827 0 -0 0
996 5 21.0832 -0.259864 5.83996 0 0 -0
1053 4 15.7456 26.2725 4.22555 -0 -0 -0
1054 5 16.768 28.9737 4.09965 -0 0 -0
1055 4 18.9794 28.6431 5.918 -0 0 -0
1056 5 21.0842 26.6941 5.83725 0 0 -0
985 4 14.8321 27.3051 8.29323 0 -0 0
988 5 13.7632 27.9585 10.7701 0 -0 0
1057 4 22.4516 27.3048 8.28227 -0 0 0
1058 5 17.5903 27.7767 8.2143 -0 -0 0
1059 4 18.646 27.4432 10.854 -0 0 -0
1060 5 21.3987 27.9559 10.7579 0 0 -0
931 4 11.8201 -0.666312 14.9354 -0 0 0
989 4 15.1321 28.6101 13.2103 -0 -0 0
991 4 11.8084 26.2649 14.9755 -0 -0 0
992 5 12.7996 28.9734 14.816 0 0 -0
1002 5 17.1887 -0.361069 13.1408 0 0 0
1003 4 19.4054 -0.662925 14.9736 -0 -0 -0
1061 4 22.7236 28.5705 13.2191 0 -0 -0
1062 5 17.2248 26.6667 13.1587 0 0 -0
1063 4 19.3939 26.2617 15.0202 -0 -0 0
1064 5 20.4284 28.9769 14.8365 -0 0 0
1066 5 24.404 2.02221 4.08143 0 0 0
1067 4 26.5906 1.68554 5.91038 0 0 0
1077 4 23.3666 4.71336 4.20525 -0 0 0
1078 5 24.4102 7.41239 4.08365 -0 0 0
1079 4 26.5953 7.07242 5.91785 -0 0 -0
1080 5 28.7171 5.13327 5.82235 0 -0 0
1138 5 32.0279 2.02237 4.06935 -0 -0 0
1139 4 34.2047 1.67399 5.89127 0 -0 0
1149 4 30.9763 4.71198 4.17879 0 -0 -0
1150 5 32.0323 7.41272 4.06942 0 -0 0
1151 4 34.2085 7.06277 5.89358 0 -0 0
1069 4 30.0632 0.388441 8.26424 -0 0 0
1070 5 25.227 0.804661 8.20976 -0 -0 -0
1071 4 26.2509 0.571201 10.8733 0 0 -0
1072 5 29.0422 0.93649 10.7741 -0 0 0
1081 4 30.0753 5.78016 8.25262 -0 -0 0
1082 5 25.2465 6.18603 8.22337 -0 0 -0
1083 4 26.2726 5.99143 10.9204 -0 -0 -0
1084 5 29.069 6.33022 10.7587 -0 0 0
1142 5 32.8457 0.813277 8.19977 -0 0 -0
1143 4 33.8577 0.556708 10.8435 -0 0 -0
1154 5 32.8606 6.19527 8.205 0 -0 0
1155 4 33.8705 5.96824 10.8695 -0 0 -0
1073 4 30.3595 1.6507 13.2137 0 0 -0
1076 5 28.0573 2.02479 14.8019 -0 0 -0
1085 4 30.3635 6.97896 13.2365 0 -0 -0
1086 5 24.844 4.96808 13.1327 0 0 0
1087 4 26.957 4.75098 15.1403 -0 -0 0
1088 5 28.0064 7.4279 14.6975 -0 0 0
1158 5 32.5072 5.01924 13.1398 -0 -0 -0
54 1 26.5803 5.1706 20.6899 0 0 0
55 1 24.7676 5.6496 21.6599 -0 -0 0
65 2 25.8732 5.55029 24.3433 0 0 0
71 2 26.5707 5.05897 23.0442 0 -0 0
73 2 26.0766 5.7844 21.763 -0 -0 0
92 3 24.8239 5.25631 24.3179 0 -0 -0
93 3 25.9173 6.63896 24.3742 -0 -0 0
102 3 26.4219 3.98347 22.948 0 -0 0
103 3 27.6413 5.24656 23.1262 -0 -0 0
685 3 34.0494 3.98083 22.9531 0 0 0
638 1 32.423 5.65655 21.6299 -0 0 -0
648 2 33.4957 5.54918 24.3448 -0 -0 -0
654 2 34.2005 5.05576 23.0521 0 -0 0
656 2 33.721 5.78833 21.7726 0 -0 0
675 3 32.4469 5.25363 24.3171 0 -0 0
676 3 33.5372 6.63799 24.3743 -0 0 0
56 2 26.528 4.94213 28.171 0 0 0
57 2 25.8418 5.47992 29.4521 0 0 -0
58 2 25.8474 5.49735 26.9015 0 0 -0
60 2 26.5354 4.973 25.6166 0 0 -0
74 3 26.4731 3.85354 28.1637 0 0 -0
75 3 27.5775 5.23646 28.1726 -0 0 -0
76 3 25.8842 6.56902 29.4393 0 0 0
77 3 24.7951 5.17612 29.4343 0 0 0
78 3 25.8952 6.58628 26.9086 -0 0 0
79 3 24.798 5.20287 26.8885 -0 0 -0
82 3 27.5863 5.2619 25.6333 -0 0 0
83 3 26.4771 3.88478 25.5951 -0 -0 -0
639 2 34.1507 4.94247 28.1707 -0 -0 0
640 2 33.4643 5.48022 29.4516 -0 -0 -0
641 2 33.4699 5.49803 26.9017 -0 0 0
643 2 34.1584 4.97336 25.6179 -0 0 0
657 3 34.0946 3.85394 28.1639 0 -0 0
659 3 33.5055 6.56937 29.4396 0 0 -0
660 3 32.4178 5.17584 29.4343 0 0 0
661 3 33.5161 6.58702 26.9094 -0 0 -0
662 3 32.4209 5.20248 26.8889 0 -0 0
666 3 34.099 3.88518 25.5971 0 0 0
31 3 25.486 7.31308 36.2989 0 0 -0
44 3 24.5196 7.57409 34.0034 0 -0 0
59 2 26.5145 4.94787 30.7356 0 -0 0
61 2 25.8936 2.93345 36.2506 0 -0 -0
63 2 25.0001 3.80542 35.3375 0 0 -0
64 2 25.919 5.58275 32.0255 -0 0 -0
67 2 24.9076 3.19272 33.9089 0 -0 0
68 2 24.4275 5.30847 32.3468 -0 -0 -0
70 2 23.9949 3.92591 32.9044 0 0 -0
80 3 27.575 5.19706 30.6968 0 0 0
81 3 26.4313 3.86188 30.778 -0 -0 0
84 3 25.4876 1.92299 36.2979 -0 -0 0
85 3 26.8906 2.87677 35.8136 0 0 0
88 3 24.0003 3.87279 35.7666 0 -0 -0
89 3 25.4181 4.81032 35.2784 0 -0 -0
90 3 26.0244 6.66353 31.9311 -0 0 -0
91 3 26.5355 5.28223 32.8727 0 -0 0
96 3 25.9089 3.11958 33.4846 -0 0 0
97 3 24.5224 2.17646 33.9922 -0 -0 0
98 3 23.757 5.64965 31.558 -0 -0 -0
101 3 22.9443 3.91691 33.1946 0 0 -0
614 3 33.1077 7.31342 36.2992 -0 0 -0
627 3 32.1415 7.57408 34.0041 -0 -0 -0
642 2 34.137 4.94808 30.7349 -0 0 0
644 2 33.5158 2.93354 36.2505 0 0 -0
646 2 32.6224 3.8055 35.3372 0 -0 -0
647 2 33.5412 5.58286 32.0245 -0 -0 -0
650 2 32.5301 3.19249 33.9087 0 -0 0
651 2 32.0501 5.30727 32.3452 -0 -0 -0
653 2 31.6179 3.92485 32.9031 -0 0 -0
664 3 34.0529 3.86218 30.7779 -0 -0 0
667 3 33.1095 1.92321 36.2981 -0 -0 0
671 3 31.6226 3.87251 35.7662 0 -0 0
672 3 33.04 4.81061 35.2785 0 -0 0
673 3 33.6455 6.66384 31.9313 -0 0 -0
674 3 34.1567 5.28205 32.8723 0 -0 0
679 3 33.5317 3.11865 33.4849 0 0 0
680 3 32.1443 2.17654 33.9928 0 -0 0
681 3 31.3766 5.65083 31.56 -0 0 0
684 3 30.5679 3.91756 33.1955 -0 -0 0
13 2 26.7963 7.98172 38.6577 -0 -0 -0
16 2 28.3125 7.90327 38.327 0 0 -0
19 2 29.0883 7.07913 39.3725 0 -0 0
41 3 26.3691 6.97899 38.6455 -0 0 -0
46 3 28.457 7.43803 37.3519 -0 0 0
51 3 28.7035 6.05996 39.4086 -0 -0 0
52 3 28.9902 7.53249 40.3588 -0 0 -0
53 3 30.1445 7.0458 39.1048 0 0 0
62 2 25.9959 3.50138 37.6938 -0 -0 -0
66 2 26.7962 2.5928 38.6572 0 -0 -0
69 2 28.3127 2.51546 38.3274 -0 0 -0
72 2 29.0887 1.69121 39.3729 0 -0 0
86 3 24.9875 3.61483 38.0917 -0 -0 -0
87 3 26.4535 4.4901 37.6595 -0 0 0
94 3 26.3703 1.58951 38.6443 0 0 -0
95 3 26.6769 2.98804 39.666 -0 0 -0
99 3 28.4579 2.05033 37.3524 -0 -0 -0
100 3 28.7282 3.52235 38.2873 -0 -0 -0
104 3 28.7046 0.671717 39.4082 0 0 0
105 3 28.99 2.1438 40.3596 -0 0 -0
106 3 30.1449 1.65827 39.1057 0 0 -0
624 3 33.9904 6.97903 38.6459 0 0 0
645 2 33.6179 3.50139 37.6937 0 0 0
669 3 32.6095 3.61472 38.0916 -0 0 -0
670 3 34.0754 4.49016 37.6599 0 -0 -0
677 3 33.9918 1.58941 38.6446 0 -0 -0
678 3 34.2986 2.98798 39.6662 -0 0 -0
1089 4 23.3721 10.1036 4.20339 -0 0 0
1090 5 24.4145 12.8041 4.07988 -0 0 -0
1091 4 26.5983 12.4566 5.91576 0 0 -0
1092 5 28.7213 10.5211 5.81711 0 0 0
1101 4 23.3718 15.4925 4.20078 0 -0 0
1104 5 28.723 15.9146 5.81586 0 -0 0
1161 4 30.9807 10.1022 4.17558 0 0 -0
1162 5 32.0356 12.8042 4.06537 0 -0 0
1163 4 34.2111 12.449 5.88977 0 -0 -0
1173 4 30.9806 15.4914 4.17322 0 -0 -0
1093 4 30.0833 11.1525 8.25067 -0 0 0
1094 5 25.2518 11.5803 8.22346 -0 0 -0
1095 4 26.2883 11.3677 10.9257 0 -0 -0
1096 5 29.0749 11.7657 10.7372 -0 0 0
1166 5 32.8659 11.5879 8.20239 0 -0 -0
1167 4 33.8819 11.351 10.869 0 -0 0
1097 4 30.3408 12.2994 13.2543 0 -0 -0
1098 5 24.856 10.3612 13.1309 -0 -0 -0
1099 4 26.9301 10.127 15.201 0 -0 -0
1100 5 27.9881 12.8212 14.6864 -0 -0 -0
1110 5 24.8786 15.7951 13.1409 0 -0 0