ITEM: TIMESTEP
0
ITEM: NUMBER OF ATOMS
122
ITEM: BOX BOUNDS pp pp pp
0.0000000000000000e+00 2.0000000000000000e+01
0.0000000000000000e+00 2.0000000000000000e+01
0.0000000000000000e+00 2.0000000000000000e+01
ITEM: ATOMS id type xu yu zu vx vy vz
61 6 8.86493 2.04612 8.99349 0 -0 -0
60 6 9.92033 0.651434 8.65289 0 0 -0
58 6 6.94216 0.292603 9.0217 0 0 -0
57 6 7.30052 2.02928 7.227 0 0 -0
56 6 8.28899 0.841862 6.33994 0 0 0
54 6 5.38589 0.447716 7.20998 0 0 0
53 6 5.63038 2.13876 5.41126 0 0 0
52 6 6.56994 0.968881 4.45045 -0 0 -0
50 6 3.70066 0.590496 5.42478 -0 -0 -0
49 6 3.90565 2.24808 3.59713 -0 0 -0
48 6 4.84736 1.07752 2.63822 0 -0 -0
46 6 1.99423 0.678738 3.63876 -0 0 0
45 6 2.16952 2.32025 1.77725 -0 0 -0
44 6 3.09243 1.13065 0.822416 0 -0 0
42 6 0.279782 0.74619 1.91424 -0 -0 -0
16 1 1.02758 0.619759 1.13161 0 0 -0
17 1 2.33272 1.2583 1.59366 -0 0 0
18 1 2.77104 0.564216 2.88269 0 0 -0
19 1 4.06766 1.19001 3.39129 0 -0 0
20 1 4.48398 0.473868 4.6755 -0 -0 0
21 1 5.78537 1.0809 5.19853 0 -0 -0
22 1 6.18958 0.35162 6.47985 0 0 -0
23 1 7.46953 0.967605 7.0479 -0 -0 -0
24 1 7.81086 0.26497 8.36487 -0 0 -0
25 1 8.9668 0.965034 9.07944 0 0 0
69 1 9.67807 9.89058 4.18961 -0 0 -0
80 3 7.88521 9.65982 7.44703 0 0 0
108 5 7.08753 8.93805 7.24871 -0 -0 0
107 5 8.82493 9.11759 7.60685 -0 -0 0
70 2 8.48768 8.11242 4.74607 0 0 -0
88 4 8.75763 9.31331 4.99127 0 -0 -0
15 5 0.481147 1.44698 -0.366438 0 0 0
26 5 8.87321 0.515293 10.8183 0 0 0
74 3 7.51736 9.55868 13.922 0 0 -0
96 5 6.97527 9.57123 14.8699 -0 0 0
95 5 7.5199 8.49709 13.6658 -0 0 -0
94 5 8.22414 9.82346 10.6644 0 0 0
93 5 6.74869 8.99744 10.2981 -0 -0 0
92 5 5.54276 9.67122 13.1728 0 -0 -0
83 4 9.9734 9.07853 14.7809 0 -0 -0
62 7 9.69054 1.54195 11.1721 -0 -0 -0
73 3 7.23042 9.97896 10.2959 -0 -0 0
59 6 8.08019 -0.773543 8.17054 0 -0 0
55 6 6.35861 -0.703203 6.26363 -0 -0 0
51 6 4.63432 -0.58586 4.46952 -0 -0 0
47 6 2.93203 -0.495764 2.68593 0 0 0
43 6 1.20332 -0.437277 0.930381 -0 0 0
118 5 7.0643 10.285 5.46178 -0 0 0
117 5 8.58225 11.1424 5.7884 -0 -0 0
98 5 8.4327 11.1389 8.95631 -0 -0 -0
97 5 6.73367 11.2532 8.48714 -0 -0 0
86 3 8.04319 10.1975 5.9452 0 -0 -0
75 3 7.5233 10.5512 8.78084 -0 0 -0
106 5 9.44046 10.7585 13.5842 0 0 -0
105 5 8.86623 10.689 15.1954 -0 0 -0
71 3 6.51156 10.7649 11.5214 0 -0 0
72 3 6.43668 10.2924 13.0295 0 -0 0
91 5 6.09786 11.2062 13.5323 0 -0 0
90 5 5.43231 10.7901 11.3316 -0 0 0
89 5 6.82208 11.8102 11.6609 0 -0 -0
79 3 8.97555 10.0822 14.2941 -0 0 -0
99 5 12.4709 8.78044 9.9559 -0 -0 -0
122 6 10.1123 9.37053 3.47932 -0 0 -0
76 3 12.4891 9.63966 10.6303 0 0 0
12 3 -2.82967 0.404915 -2.25458 0 0 -0
13 3 -1.65867 1.01824 -1.84089 -0 -0 -0
14 3 -0.992459 0.586774 -0.705042 0 0 -0
41 6 -1.28281 1.79944 -2.37834 -0 0 -0
40 6 -3.30532 0.786425 -3.07053 0 -0 0
37 6 -5.25044 0.371301 -7.64025 0 -0 -0
35 6 -5.98481 0.689544 -9.84372 -0 -0 -0
32 6 -8.08647 0.609371 -8.94162 0 0 0
116 5 11.228 7.49707 14.8066 -0 0 -0
112 5 11.8797 7.09597 12.8359 -0 0 -0
111 5 10.4554 7.68769 12.1392 -0 -0 0
103 5 13.3 8.33162 12.2312 -0 -0 0
113 5 10.0825 9.01248 15.8048 -0 -0 0
85 4 10.8659 8.19815 14.139 0 0 0
82 3 11.3181 8.02624 12.7255 -0 0 0
78 3 12.446 9.00946 12.1333 -0 0 0
104 5 12.5965 9.78147 12.8943 0 0 0
64 6 -3.10117 -1.83377 0.18211 -0 0 -0
63 6 -1.13059 -0.810843 0.889422 0 0 -0
34 6 -6.01539 -1.0731 -10.1782 -0 0 -0
121 5 12.1613 11.9385 5.41238 -0 0 -0
120 5 13.8442 12.278 5.54756 0 -0 0
119 5 13.2612 10.6116 5.24698 -0 0 -0
115 5 12.0462 12.0355 7.56775 0 -0 -0
114 5 12.1649 10.3343 7.1642 0 0 -0
110 5 14.2799 12.0225 8.68734 -0 -0 -0
87 3 13.0853 11.5312 5.81622 -0 0 0
84 3 12.7482 11.2348 7.32179 -0 -0 0
81 3 13.8304 11.0415 8.50177 -0 -0 0
109 5 14.6777 10.4087 8.19404 0 0 0
27 3 -1.55299 -0.456424 0.0368729 0 -0 0
1 1 -7.64576 -0.384741 -8.95566 0 -0 -0
68 6 -8.32214 -1.69361 -7.38585 -0 -0 -0
67 6 -7.70569 -0.10102 -6.84351 0 -0 0
66 6 -3.70042 -1.45129 -6.39745 0 -0 -0
65 6 -3.00643 -1.38934 -4.19772 0 0 0
2 1 -6.20698 -0.297304 -9.43745 0 0 0
3 1 -5.39488 -0.567595 -8.17724 0 -0 0
4 2 -6.20189 -1.50241 -7.37062 0 -0 -0
5 3 -5.78306 -1.55378 -6.01611 0 -0 -0
6 3 -6.67385 -1.7486 -4.95408 -0 -0 -0
7 3 -6.24873 -1.70833 -3.62983 -0 0 -0
8 3 -4.91521 -1.47367 -3.31699 0 0 -0
9 3 -4.50799 -1.36139 -1.98013 0 -0 0
10 4 -5.21496 -1.90723 -1.10731 0 -0 -0
11 3 -3.35686 -0.683221 -1.55936 0 0 -0
39 6 -6.94272 -1.82514 -2.89223 -0 0 -0
38 6 -7.66468 -1.92208 -5.11223 -0 0 -0
36 6 -4.43778 -0.994074 -8.4758 -0 0 -0
33 6 -8.2199 -1.05639 -9.59365 0 -0 -0
31 1 -7.5534 -0.933789 -7.53149 0 0 -0
30 3 -4.42928 -1.47393 -5.68896 0 -0 -0
29 3 -4.00899 -1.43016 -4.37067 0 -0 0
28 3 -2.72798 -1.06903 -0.379276 0 0 -0
101 5 14.6157 10.3817 10.2449 0 0 -0
100 5 11.5825 10.2288 10.5322 -0 -0 -0
102 5 13.4689 11.6598 10.5014 0 -0 0
77 3 13.5832 10.675 10.0273 0 0 0
ITEM: TIMESTEP
1000
ITEM: NUMBER OF ATOMS
122
ITEM: BOX BOUNDS pp pp pp
0.0000000000000000e+00 2.0000000000000000e+01
0.0000000000000000e+00 2.0000000000000000e+01
0.0000000000000000e+00 2.0000000000000000e+01
ITEM: ATOMS id type xu yu zu vx vy vz
61 6 7.7487 2.54085 9.89481 -0.00176667 0.000484983 0.0014688
60 6 9.15575 1.81292 9.08775 -0.00242885 0.00168002 -0.000178737
58 6 6.52454 0.372335 9.66869 -0.00118485 0.000468444 0.00234981
57 6 6.28974 2.12135 7.93987 -0.00256094 -0.000397717 0.00171019
56 6 7.70127 1.47724 7.07817 -0.00253885 0.000152907 0.00154094
122 6 9.90947 7.99559 3.9422 -0.001255 -0.00240379 0.00103575
53 6 4.84739 1.84796 6.0075 -0.00186673 -0.000794576 0.00112678
52 6 6.25677 1.29847 5.08087 -0.00147206 -0.000702329 0.00138826
69 1 9.62755 8.70943 4.55368 0.000340589 -0.00409327 0.00386891
49 6 3.45274 1.80052 4.06902 -0.00142423 -3.45102e-05 0.000827647
48 6 4.79114 1.25501 3.04044 -0.000543097 0.000438774 0.00158718
70 2 7.50783 8.03307 4.37207 -0.000433306 0.000370093 -0.00189097
45 6 1.91824 1.94839 2.24654 -0.00238446 0.000180373 0.000892456
44 6 3.16949 1.46887 1.08461 7.18218e-05 0.00354439 0.00214992
15 5 0.143512 1.75311 0.426218 -0.000329623 0.000129891 6.00976e-05
16 1 1.29301 0.438923 0.878152 0.001865 0.00128017 -0.00238629
17 1 2.37687 1.10137 1.73648 -0.000452779 0.00155092 0.000319606
18 1 2.96399 0.14757 2.78873 -0.00071058 0.000750395 -0.000261976
19 1 3.95862 0.925319 3.66217 -0.00110012 0.000119355 0.000807736
20 1 4.50197 0.0832475 4.82691 -0.00165597 -0.000358949 0.000806916
21 1 5.41171 0.972407 5.68732 -0.00167549 -0.000705905 0.00125647
22 1 5.93938 0.248921 6.93439 -0.00189843 -0.000500263 0.0015319
23 1 6.84979 1.21596 7.70632 -0.00226892 -0.000191109 0.00165512
24 1 7.36586 0.604643 9.01527 -0.00148978 0.000359617 0.00165743
25 1 8.28854 1.61061 9.71582 -0.00130837 0.000824031 0.000867769
88 4 8.32388 8.82485 4.90205 -0.000203882 -0.0013243 0.000387987
80 3 7.55574 9.46905 7.26536 -0.000715222 -0.000545688 -0.000544831
108 5 6.53303 9.12377 7.07309 -0.000483024 -0.000936637 -0.000361858
107 5 8.21073 8.596 7.388 -0.000505536 -5.2538e-05 -0.000550402
86 3 7.89898 9.93904 5.77512 -0.000692077 -0.000769662 -0.00059959
62 7 9.56753 2.07428 11.5627 4.68001e-05 0.00232906 -0.00123672
26 5 8.84971 0.950522 11.2941 0.00145102 0.00123076 0.000297484
74 3 7.70323 9.75573 13.8154 0.000271699 0.000613096 -0.000255704
96 5 7.19696 9.85398 14.7794 0.000126194 0.000542287 -0.00030108
95 5 7.68256 8.68084 13.634 0.000273622 0.000570293 -0.000303582
94 5 8.2069 9.57899 10.4725 -0.000611876 -0.00152902 -0.000200035
93 5 6.60496 8.99593 10.1764 -0.000962135 -0.000191889 -0.00037309
92 5 5.72387 9.78553 13.1125 0.000218526 0.00073225 -0.000372016
73 3 7.22754 9.8961 10.1447 -0.000265242 -0.000302557 -0.000325669
59 6 7.92302 -0.307274 8.80142 -0.00112771 0.000606685 0.00179598
55 6 6.50674 -0.632998 6.63638 -0.00162406 -0.000470323 0.00189058
51 6 5.07194 -0.759296 4.43485 -0.00197126 -0.000546517 0.000791905
47 6 3.47236 -0.678813 2.29192 -0.000393809 0.00126411 -0.000742817
43 6 1.73506 -0.0047841 -0.0141139 0.00353934 0.00470293 -0.00324355
118 5 7.0086 10.3247 5.26514 -0.00100299 -0.000816238 -0.000648529
117 5 8.70754 10.6599 5.61238 -0.00105711 -0.000308956 -0.00116984
98 5 8.5964 10.7087 8.7677 0.000925422 -0.00306424 -0.000411222
97 5 6.98239 11.2887 8.34379 0.00209149 0.000371269 -0.000287282
46 6 2.16234 -0.239384 3.41781 -0.000928932 0.000103435 -0.000997961
75 3 7.55789 10.3963 8.61618 0.000340256 -0.000826302 -0.000427845
50 6 3.67293 -0.284305 5.43141 -0.00191011 -0.000283476 0.000333973
54 6 5.10193 -0.0496274 7.5649 -0.00185736 -0.000604729 0.00145943
42 6 0.781463 -0.326852 1.45767 0.00282761 -0.00133332 -0.00494665
106 5 9.65396 10.7764 13.2431 0.000612471 -0.000162666 -0.000294785
105 5 9.14346 11.0356 14.8557 0.000498973 0.000507431 -0.000348659
71 3 6.64375 10.7977 11.3636 0.000776059 0.000624854 -0.000502296
72 3 6.59849 10.4132 12.9007 0.000394923 0.000600329 -0.000521902
91 5 6.26168 11.3487 13.3614 0.000636296 0.000786141 -0.000953293
90 5 5.56408 10.8613 11.1973 0.000877583 0.00244961 -0.000653082
89 5 7.00247 11.8357 11.4308 0.00261668 -0.000325234 -0.000497062
79 3 9.18456 10.2745 14.0744 0.000358619 0.000315354 -0.000172548
99 5 12.5155 8.68657 9.97731 0.000271922 -0.000530041 -0.000160628
76 3 12.5323 9.48779 10.7201 0.000155306 -0.000673617 -1.02253e-05
12 3 -2.33654 0.491769 -2.44388 -0.000855129 0.00102232 0.000321297
13 3 -1.30862 1.12968 -1.75846 -0.00058458 0.000830281 0.000462205
14 3 -1.0272 0.811355 -0.438668 -0.000102841 -0.000166831 9.71291e-05
41 6 -0.781799 1.87095 -2.22013 -0.00113657 0.0014672 0.00076957
40 6 -2.55364 0.83977 -3.37076 -0.00106097 0.00248888 0.000974199
83 4 10.1314 9.29527 14.688 4.78144e-05 0.000242334 9.72016e-06
67 6 -5.58693 0.185321 -8.55636 0.0119035 -0.00814863 -0.00854351
104 5 13.0069 9.25348 12.9569 0.000700296 -0.000971768 -6.24146e-05
116 5 11.1363 7.55491 14.9114 -2.59697e-05 0.000440648 0.000365826
112 5 11.8867 6.94807 13.0401 0.000133714 -0.000254001 0.000563606
111 5 10.5288 7.45981 12.2012 0.000246489 -0.000497452 0.000315419
103 5 13.2436 7.84344 11.963 -2.63653e-05 -0.000910637 -0.000257736
113 5 10.2956 9.39605 15.7017 -4.56031e-05 0.000249874 -6.13604e-05
85 4 10.891 8.23192 14.167 4.74886e-05 0.000249575 8.19199e-05
82 3 11.3577 7.86968 12.7951 0.00023107 -0.000182061 0.000163168
78 3 12.563 8.68476 12.1304 0.000394541 -0.000671192 -8.74111e-05
68 6 -7.27836 0.386515 -8.00547 0.0137445 0.00671281 -0.00798381
64 6 -3.25265 -1.59286 -0.0224122 0.00129521 -0.0015457 -0.000798393
63 6 -1.59432 -0.437871 1.14589 0.00095289 -0.00202195 -0.000800407
35 6 -5.93104 -2.5093 -10.6657 0.00344658 -0.00661022 0.00381792
121 5 11.9385 12.1434 5.77036 -0.00100068 0.00168656 0.00135468
120 5 13.4026 12.9881 6.09153 -0.00139598 0.00212913 0.00179794
119 5 13.4115 11.2948 5.49772 -0.00052439 0.00255599 0.000706686
115 5 11.9127 12.1524 7.99775 -0.00104851 -0.000215585 0.00135106
114 5 12.1404 10.5288 7.35256 -1.8329e-05 0.00041404 0.000104043
110 5 14.1784 12.1537 9.06372 -0.000528879 0.000217249 0.000971235
87 3 12.9333 12.0017 6.18623 -0.000923389 0.0018544 0.0011198
84 3 12.6584 11.444 7.62956 -0.000586538 0.000581277 0.00070123
81 3 13.7799 11.1806 8.75935 -0.000433075 0.000240613 0.000500665
109 5 14.6554 10.6403 8.37265 -0.000339224 0.000576222 0.000144941
27 3 -1.765 -0.191862 0.171527 0.000578015 -0.000868407 -0.000384117
32 6 -6.57651 -0.285363 -10.6012 0.00254204 -0.00678402 -0.00549242
1 1 -7.02892 -0.846116 -9.78324 0.00391924 -0.00323434 -0.00229922
34 6 -7.45636 -2.96346 -9.84514 -0.000434285 -0.00258375 -0.00126802
77 3 13.6002 10.5944 10.2193 -8.15642e-05 -0.000408384 0.000262503
66 6 -3.87106 -0.74721 -7.00168 -0.00136287 0.00431608 -0.000495978
65 6 -2.91279 -0.71844 -4.85935 -0.00147471 0.00498825 -0.000650465
2 1 -6.58103 -2.31387 -9.81284 0.000771245 -0.00417655 0.00125276
3 1 -5.82805 -2.51983 -8.49684 -0.00368852 -0.00410166 0.0038578
4 2 -6.42949 -1.51742 -7.61423 -0.000445726 0.00172424 -0.000656681
5 3 -5.78414 -1.36513 -6.38065 -0.00060965 0.00133237 -0.000505412
6 3 -6.53624 -1.66476 -5.25864 0.000410174 -0.00158031 -0.00080275
7 3 -5.99177 -1.57712 -3.98604 0.000786097 -0.00248341 -0.000786183
8 3 -4.66212 -1.19444 -3.77742 -6.27735e-05 0.000359799 -0.00068451
9 3 -4.1977 -1.16966 -2.44488 -0.000151738 0.000318977 -0.000442817
10 4 -4.90887 -1.81152 -1.64203 0.000229092 0.000580457 -0.000405254
11 3 -3.09118 -0.526214 -1.85144 -5.30581e-05 0.0005644 -0.000307722
39 6 -6.62222 -1.79348 -3.21549 0.00130585 -0.00538178 -0.00116363
38 6 -7.5081 -1.95475 -5.36674 0.000892171 -0.00338231 -0.000496
36 6 -5.97708 -3.52935 -8.11184 -0.00977571 -0.00210339 0.00668916
33 6 -8.11645 -0.793304 -9.84421 0.00379384 -0.00142164 0.000826648
31 1 -6.55101 -0.30629 -8.43011 0.00848661 -0.000404094 -0.00519733
30 3 -4.45995 -0.973309 -6.20113 -0.00107563 0.00294877 -0.000532037
29 3 -3.90539 -0.920081 -4.92302 -0.00102229 0.00300112 -0.000633225
28 3 -2.76371 -0.856278 -0.52843 0.000331118 -0.000715697 -0.00058147
101 5 14.6383 10.2624 10.3464 -5.96156e-05 -0.000526768 -0.000229341
100 5 11.6108 10.0478 10.6759 4.53579e-05 -0.000904703 4.55866e-05
102 5 13.5019 11.5097 10.8211 9.47201e-05 -0.000556935 0.000570623
37 6 -4.76841 -2.3257 -8.65683 -0.00227643 -0.00987621 0.00610315
ITEM: TIMESTEP
2000
ITEM: NUMBER OF ATOMS
122
ITEM: BOX BOUNDS pp pp pp
0.0000000000000000e+00 2.0000000000000000e+01
0.0000000000000000e+00 2.0000000000000000e+01
0.0000000000000000e+00 2.0000000000000000e+01
ITEM: ATOMS id type xu yu zu vx vy vz
54 6 5.08666 0.514083 7.47869 -0.00174267 0.000154682 0.00226192
60 6 9.01845 2.25669 9.43413 0.00231659 -0.00222007 -0.00655096
58 6 6.72491 0.275097 9.21628 -0.00444167 0.00534966 0.00296231
57 6 6.04216 2.61047 8.48401 -0.00131281 0.00339908 -0.00153255
56 6 7.34323 2.55723 7.27693 -0.00218854 0.000389088 -0.00241842
86 3 8.03704 8.957 5.76833 0.000834492 -0.00294758 0.000662175
53 6 4.25504 2.82402 6.8466 -0.00613261 -0.00251062 0.00330646
52 6 5.35779 2.76877 5.45061 -0.00536337 0.00198609 0.00390613
69 1 9.4812 7.17922 4.87381 -0.0017572 -0.00200455 -0.00200079
49 6 2.39749 2.96772 4.85788 0.0011339 0.00217923 0.00287004
48 6 3.62138 2.59759 3.62335 -0.00152523 -0.000328965 0.00125525
70 2 7.26919 6.93831 4.73477 -0.00175352 -0.00351923 0.00432295
45 6 0.925358 2.97129 2.70959 -0.00480439 0.00332383 0.00318396
44 6 2.09613 2.16319 1.65279 -0.00211142 0.00539416 0.00405093
15 5 -0.0117733 1.84512 0.0160223 -0.000737486 0.00262338 5.36984e-05
16 1 0.162758 1.22565 1.70921 -0.00142234 0.00301555 0.000354985
17 1 1.30894 2.00257 2.38947 -0.00336124 0.00413993 0.0025575
18 1 1.91291 1.27024 3.60252 -0.00453327 0.0036547 0.00294331
19 1 2.92899 2.16511 4.34572 -0.00159287 0.00101064 0.00183649
20 1 3.72602 1.34088 5.37253 -0.00221455 -0.00110748 0.000439165
21 1 4.77014 2.16768 6.14467 -0.00447999 -0.000381163 0.00239005
22 1 5.70215 1.20399 6.90177 -0.00301393 0.000436525 0.00109823
23 1 6.64301 1.95446 7.85539 -0.00238893 0.0018883 -0.000947577
24 1 7.42033 0.972532 8.74951 -0.0035905 0.00184682 -0.000376991
55 6 6.29858 0.637588 6.1862 -0.00338907 0.000904104 0.000516373
88 4 8.23258 7.62251 5.15713 -0.000926178 -0.00257951 0.000457175
80 3 7.64962 8.85709 7.31929 0.00113192 -0.00190176 0.000929043
108 5 6.6092 8.53148 7.21338 0.000820879 -0.00188433 0.00129244
107 5 8.25647 8.00101 7.6405 0.00085192 -0.0022002 0.00128083
118 5 7.21911 9.37598 5.16734 0.00136136 -0.001878 0.000699443
50 6 3.02932 0.898169 6.08443 -0.00222903 -0.00344902 -0.00084527
46 6 1.11448 0.990122 4.28969 -0.00469372 0.00631129 0.00390114
59 6 8.13732 0.414293 8.14631 -0.00647363 -0.00184444 -0.0007496
122 6 9.60113 6.3083 4.43786 -0.00217822 -0.00185668 -0.00309792
51 6 4.24351 0.542301 4.84205 -0.000557716 0.000813645 -0.000744302
117 5 8.96369 9.47859 5.47795 0.00154085 -0.0041789 0.00086939
43 6 0.395001 0.160853 1.68244 -0.000186087 0.00327181 0.000638538
47 6 2.41299 0.368867 3.24814 -0.00716854 0.00197327 0.00351856
25 1 8.16041 1.73416 9.85786 0.000941928 0.00170506 -0.00375619
62 7 9.23634 1.60033 11.8846 0.00300396 0.0005371 -0.00593987
26 5 8.71762 0.591666 11.133 -0.00141611 0.000707255 -0.0033139
73 3 7.41108 9.91414 10.0336 0.000841853 8.59028e-05 0.000326826
61 6 7.49198 2.4576 10.323 0.00442381 0.00485887 -0.00397061
95 5 7.56012 8.96666 13.5168 -0.00178218 0.00109774 0.00109565
94 5 8.36505 9.58144 10.3929 0.000214051 -0.0010516 0.00103384
93 5 6.68071 9.13013 10.2632 -0.000456493 0.00113681 0.000222715
75 3 7.71454 10.0574 8.42764 0.000986563 -0.00096724 0.000239574
98 5 8.76718 10.3168 8.47015 0.00078012 -0.000493662 -0.000553422
97 5 7.18007 10.9087 7.98206 -0.000180788 -0.00225795 -0.000270281
106 5 9.96125 10.7891 13.4487 9.92434e-06 -4.3999e-06 0.000496985
105 5 9.27577 10.8221 15.0076 4.40101e-05 -0.00160408 0.000381668
71 3 7.12281 11.106 11.0891 0.0008771 0.000478015 -0.00038102
72 3 6.95944 10.9323 12.6523 0.000621617 0.000839195 -0.000283713
91 5 6.96935 11.9807 12.9735 0.000517264 0.000918966 6.76875e-05
90 5 6.15387 11.5764 10.881 0.00054304 -0.000401871 -0.000578459
89 5 7.86566 11.9137 11.0556 0.000415326 0.000581665 -0.000663792
79 3 9.31496 10.2211 14.0965 0.000267632 -0.000611064 -0.00020047
96 5 7.24728 10.2711 14.554 0.000843576 0.0027773 3.13768e-05
92 5 5.9171 10.6941 12.9077 0.000186552 0.00082821 -0.000198061
74 3 7.79994 10.026 13.6491 0.000241525 0.000878142 -3.961e-06
99 5 12.3192 8.86379 9.79413 -0.000807467 0.00170353 -0.000523366
42 6 -0.753021 1.39591 2.27431 -0.00195224 0.00184222 -0.000123111
27 3 -2.29466 0.213144 -0.0154852 -0.00278728 0.006186 -0.000453298
76 3 12.5025 9.4984 10.666 -0.000688231 0.0011309 -0.000343248
12 3 -2.47145 0.380293 -2.76457 0.00279851 -0.00274999 -0.00115274
13 3 -1.41732 0.982166 -2.08755 0.00253992 -0.00231245 -0.00123509
14 3 -1.31537 0.929264 -0.702105 -0.00013584 0.00219802 -0.000717986
41 6 -0.719498 1.50352 -2.61817 0.00411073 -0.004741 -0.00157662
40 6 -2.53011 0.533769 -3.76819 0.00427464 -0.00489477 -0.00143645
83 4 10.0626 9.02781 14.5828 -0.000635096 -0.00131745 -0.000620982
78 3 12.5028 8.46201 11.9074 -0.00105315 0.000447141 -0.000813427
104 5 13.0887 8.79547 12.7718 0.000119073 -0.00071982 -0.000962119
116 5 10.9046 7.19707 14.5673 -0.00025 -0.00126426 -0.00109542
112 5 11.6803 6.77639 12.7147 -0.000489876 0.000254826 -0.00181626
111 5 10.3721 7.40589 11.9147 -0.000729776 0.000877349 -0.000596901
103 5 13.0235 7.5788 11.5281 -0.00213467 0.000486541 -0.00232934
113 5 10.1373 8.93077 15.6088 -0.000974556 -0.00224604 -0.000365966
85 4 10.7495 7.9893 13.9279 -0.000182491 -0.000803783 -0.000743175
82 3 11.2161 7.74209 12.5325 -0.00066201 0.00014987 -0.000789584
32 6 -4.35595 -5.02341 -10.2529 6.53056e-05 -0.00894003 0.00347825
63 6 -2.27458 0.138903 0.998534 -0.00555115 0.00943657 -0.000358946
33 6 -4.09814 -3.32606 -10.7571 0.00605981 -0.00939316 0.00595558
121 5 11.4284 13.1171 6.60011 0.000812411 0.00448076 0.000968432
120 5 12.386 14.2205 7.51787 -0.000350262 0.0027197 0.00357022
119 5 13.1291 13.1816 6.26106 0.00126793 0.00531041 0.00252079
115 5 11.636 12.522 8.79804 -0.000140345 0.000638455 3.24409e-05
114 5 11.9538 11.2697 7.5651 0.00101482 0.00206586 -0.00118856
110 5 14.2469 12.3158 9.37197 -0.00035885 0.000697162 0.00132937
87 3 12.4028 13.2192 7.08006 0.000497086 0.00332198 0.00211608
84 3 12.3934 12.0781 8.14841 0.000180118 0.00147519 0.000205587
81 3 13.6583 11.4933 8.95735 -5.72312e-05 0.00138925 9.30746e-05
109 5 14.3401 10.9843 8.26285 2.28175e-05 0.00191214 -6.82977e-05
1 1 -4.57158 -3.98058 -10.0254 0.00224062 -0.00866801 0.0039095
35 6 -6.62648 -4.64836 -9.98691 0.000406247 -0.00282053 0.00159632
34 6 -6.36851 -3.08786 -10.8333 0.00597241 -0.00537503 -0.00124421
67 6 -4.20539 -4.47958 -7.95948 -0.00886639 -0.0104029 0.00554096
37 6 -6.73977 -3.72103 -7.97832 -0.00141345 0.000684721 -0.00118428
77 3 13.6497 10.5588 10.2422 -0.000104796 0.000508519 -0.000693483
66 6 -2.82869 -2.12024 -6.7355 0.00181139 -0.00512803 -0.00147029
65 6 -2.61675 -1.62339 -4.4868 0.00243328 -0.00400467 -0.00178184
2 1 -6.07178 -3.71182 -9.99042 0.00296018 -0.00440434 0.000325007
3 1 -6.31276 -2.98945 -8.66517 0.00249973 -0.00168461 -0.0013728
4 2 -4.99723 -2.52842 -8.18444 0.00346512 -0.0058128 0.000178533
5 3 -4.93101 -2.19512 -6.80137 0.00177068 -0.00346353 -0.00073513
6 3 -6.0446 -1.98203 -5.97869 0.00183623 -0.000892038 -0.00152759
7 3 -5.91318 -1.59204 -4.64779 0.00215379 0.000228566 -0.00209552
8 3 -4.66387 -1.3757 -4.06632 0.00253518 -0.00134655 -0.00154776
9 3 -4.5635 -0.954971 -2.72568 0.00187818 -0.000745373 -0.00208307
10 4 -5.58395 -1.13409 -2.02227 0.000742523 -0.00040353 -0.00288386
11 3 -3.45631 -0.351532 -2.09279 0.000822849 -1.75179e-06 -0.000763623
39 6 -6.76895 -1.44099 -4.11527 0.0025003 0.00197987 -0.00209665
38 6 -6.99513 -2.07937 -6.32813 0.00172292 -2.91257e-06 -0.00159405
36 6 -6.99887 -2.15455 -8.81046 0.00571829 0.000589837 -0.00348674
102 5 13.8208 11.3047 11.0302 0.00139493 -0.000252366 -7.36393e-05
31 1 -4.09858 -3.61655 -8.61747 -0.000721725 -0.0115156 0.00536818
30 3 -3.68759 -2.00351 -6.20408 0.00209846 -0.00408673 -0.000804248
29 3 -3.55865 -1.65153 -4.86781 0.00222428 -0.00313407 -0.00127514
28 3 -3.33984 -0.406118 -0.700164 -0.00202355 0.00463592 -0.000303759
101 5 14.6137 10.0541 10.0989 -0.000587841 -0.000429759 -0.0016756
64 6 -4.02883 -0.917363 -0.150353 -0.00358924 0.00674954 -0.000470029
68 6 -3.05676 -3.30292 -8.67202 0.0015384 -0.0179925 0.00942596
100 5 11.6611 10.1243 10.8413 -0.000354354 0.00139474 8.14492e-05
ITEM: TIMESTEP
3000
ITEM: NUMBER OF ATOMS
122
ITEM: BOX BOUNDS pp pp pp
0.0000000000000000e+00 2.0000000000000000e+01
0.0000000000000000e+00 2.0000000000000000e+01
0.0000000000000000e+00 2.0000000000000000e+01
ITEM: ATOMS id type xu yu zu vx vy vz
54 6 3.98415 1.42025 7.38878 0.00636692 -0.00345635 -0.0117155
60 6 8.01445 3.40834 8.8771 -0.00503928 0.00419038 0.005346
58 6 6.08557 1.0798 8.53059 0.0016991 -0.000372812 -0.00540438
57 6 5.05369 3.4678 8.24869 -0.00102971 -0.000997811 -0.00308644
56 6 6.08922 3.56904 6.80734 0.00208261 0.00353683 -0.000246297
86 3 8.353 7.90225 6.35275 0.000774352 -0.00129676 0.00113779
53 6 2.90881 3.48371 6.7643 -0.00229636 -0.00318134 0.00364887
52 6 4.08877 3.78537 5.4655 -0.00440943 0.0104775 0.00517404
69 1 9.45932 5.83009 5.75085 -0.00106005 -0.00227851 -0.000508993
49 6 1.05378 3.63452 5.12148 -0.000381302 0.00515546 9.41775e-06
48 6 2.19488 3.89179 3.77937 -0.00444679 0.00706352 -0.00251239
70 2 7.27629 5.91852 5.41191 -3.56463e-05 0.00186388 -0.00431185
45 6 -0.159177 4.18837 2.87905 -0.0106267 0.00122156 0.0031727
44 6 0.883578 3.46889 1.63306 -0.00678118 0.00768302 0.00286874
25 1 7.35535 2.63596 9.27448 -0.00336895 0.00108715 0.00141234
75 3 7.42192 9.63315 8.50077 -0.00126277 -0.000818286 2.86394e-05
17 1 0.142524 3.25497 2.40385 -0.00642902 0.00321322 0.00180758
18 1 0.756259 2.31907 3.44467 -0.00289545 0.00455545 0.00093645
19 1 1.66353 3.141 4.3642 -0.00166425 0.00599186 -0.00134925
20 1 2.6841 2.2171 5.03032 0.00128993 0.00714266 -0.00446175
21 1 3.54506 3.0151 6.01287 -0.00128558 0.00446928 -5.13937e-05
22 1 4.53294 2.06925 6.7052 0.00326679 0.00317787 -0.00773772
23 1 5.56942 2.88953 7.48286 0.00141671 0.00118649 -0.00314899
24 1 6.59793 1.95266 8.12782 0.00137598 0.00158402 -0.00216106
55 6 5.04509 1.4601 5.9602 0.00502538 0.0101364 -0.0123695
88 4 8.29348 6.50617 5.84998 -0.000423543 -0.000970256 8.73653e-05
80 3 7.47846 8.21729 7.65085 -0.000662989 -0.000933602 7.26096e-05
108 5 6.46643 8.14677 7.24325 -6.33206e-05 -0.000327954 -0.000809096
107 5 7.66381 7.2854 8.20847 -0.00197111 -0.00117373 0.00040617
118 5 8.08098 8.5128 5.48332 0.00297289 -0.000590788 0.000905047
50 6 2.16209 1.41973 5.55996 0.00387034 0.00302615 -0.00817526
61 6 6.65555 3.07942 9.98328 -0.00674721 -0.00292841 0.00109312
59 6 7.31012 1.62568 7.3697 0.00434346 0.00462675 -0.000120024
122 6 9.47085 4.91234 5.40227 -0.000599511 -0.00330718 0.000854975
51 6 3.32693 1.78543 4.26272 0.00311559 0.012561 -0.00619085
117 5 9.4345 7.96484 6.51521 0.000973056 -0.00266617 0.00360698
47 6 1.33144 1.55061 2.92827 -0.0030294 0.00508065 -8.76898e-05
94 5 7.98531 9.31337 10.5462 0.000709371 0.000457191 -0.00045321
26 5 8.32584 1.38356 10.1273 -0.00121616 0.00242904 0.00120431
73 3 7.11576 9.74664 10.1054 -0.000276009 -0.000530932 0.000340338
93 5 6.22391 9.15551 10.3284 0.000339341 -0.00128791 0.00121698
95 5 7.36646 9.12624 13.7253 0.000549304 0.000272685 -0.000423672
62 7 8.92951 2.30705 10.9228 -0.0105872 0.00278428 0.0082005
97 5 6.61371 10.1623 7.98587 -0.00257863 -0.00236295 0.000603302
98 5 8.31299 10.245 8.3105 -0.00239617 0.000727157 -0.00161113
106 5 9.94777 10.7385 13.094 0.000264688 -1.2503e-05 -0.00109658
105 5 9.49762 10.7379 14.7244 0.000765487 0.000804537 -0.000552775
71 3 6.9066 11.0473 11.0511 -0.000812911 -0.000534776 9.09653e-05
72 3 6.88359 10.9939 12.6434 0.000187648 2.30983e-05 0.000172681
91 5 6.9635 12.0585 12.8995 -8.5854e-05 0.000160226 0.000250226
90 5 5.91791 11.4891 10.8504 -0.00141765 -0.00183697 0.000959258
89 5 7.6091 11.8725 10.8865 -0.00173284 -0.000121385 -0.000932103
79 3 9.36574 10.1659 13.8027 0.000226396 0.000477305 -0.0005139
96 5 7.46023 10.5856 14.5841 0.000197699 -0.000181851 0.000423464
92 5 5.86409 10.8064 13.0152 0.000288496 0.000482559 0.000434195
74 3 7.77898 10.1386 13.6426 0.000183742 0.000190392 0.000248192
99 5 12.1491 8.78039 9.26951 0.00149971 -0.00191581 -0.00157247
42 6 -1.87503 2.46701 2.48351 -0.00368419 -0.00514528 -0.00269615
63 6 -3.9289 2.05654 0.793707 -0.00242984 -0.00246665 -0.000225929
15 5 -1.63735 3.8006 0.499929 -0.00707743 0.00349078 0.00266243
16 1 -1.08621 2.62627 1.74741 -0.00359632 0.0006721 -0.00129997
43 6 -0.812764 1.68171 1.27708 0.000510821 0.00353647 -0.00456645
46 6 -0.0280552 1.85023 4.03881 -0.0011966 0.00383816 0.00264339
76 3 12.2608 9.3729 10.1849 0.000368716 -0.00160768 -0.00144216
12 3 -2.41049 1.45312 -2.63042 0.00111372 0.00381036 0.00039135
13 3 -1.87806 2.42607 -1.79212 -0.00245026 0.00527926 0.00090255
14 3 -2.3958 2.62586 -0.521019 -0.00365962 0.00312592 0.000902803
41 6 -1.09119 2.99188 -2.10975 -0.00403161 0.00801126 0.00174633
40 6 -2.01759 1.34357 -3.56395 0.00249034 0.00463963 0.00105281
83 4 10.1117 8.93127 14.1908 0.000128074 0.000418999 -0.000453402
78 3 12.355 8.26149 11.3654 5.21654e-05 -0.00131367 -0.000629886
104 5 13.0364 8.48519 12.194 -0.000180238 -0.0012741 -0.000651933
116 5 10.9137 7.09942 14.1609 -0.000673513 0.000458649 0.000134825
112 5 11.6374 6.61998 12.3161 7.13168e-05 -8.51519e-05 0.00157582
111 5 10.2836 7.13764 11.5289 0.000316262 -0.00192459 -0.000177031
103 5 12.8132 7.38901 10.8879 0.000324845 -0.00162262 0.000424418
113 5 10.2798 8.82257 15.2009 0.00028377 0.000255292 -0.000313505
85 4 10.7274 7.86839 13.5031 -0.000367417 -9.51951e-06 -8.42038e-05
82 3 11.126 7.55693 12.0964 -0.000195324 -0.000656237 1.93995e-05
27 3 -3.50857 1.89475 -0.121457 -0.00171694 0.000117459 -0.000192726
28 3 -4.04999 0.933848 -0.968477 0.000435044 3.93112e-05 -0.00169218
64 6 -4.85734 0.409645 -0.633695 0.00141998 -0.00145094 -0.00209031
11 3 -3.47655 0.654707 -2.213 0.00174372 0.00142641 -0.00152187
100 5 11.3324 9.88276 10.3132 -0.000868581 -0.00254787 -0.00290942
109 5 14.0833 11.2498 8.01316 -0.000140805 0.00203027 0.000222001
77 3 13.3602 10.5278 9.88153 -0.000346864 -0.000494757 -0.000572832
101 5 14.3134 10.0542 9.61965 -0.000573008 -6.82355e-05 -0.000408874
121 5 11.1249 13.7306 6.81416 -0.00137107 -4.95617e-05 -2.1195e-05
120 5 12.4965 14.5376 7.49016 0.000488517 -0.000518125 -0.00413633
119 5 12.6674 13.437 6.08453 -0.0036984 -0.00271736 -0.00286157
115 5 11.3399 12.6194 8.676 0.000853113 0.00166228 0.00107963
114 5 11.763 11.5667 7.30326 -0.00203714 -1.2266e-05 0.000435415
110 5 13.9423 12.3999 9.30993 -0.00174104 0.00108069 0.000856726
87 3 12.1781 13.5806 7.05454 -0.0011746 -0.0005658 -0.00207151
84 3 12.1395 12.3194 7.99373 -0.000355979 0.000606826 -0.00030535
81 3 13.3788 11.6423 8.75512 -0.000405602 0.000704272 0.000177032
67 6 -2.96961 -5.68659 -6.35346 0.00199738 0.00114487 -0.00361701
37 6 -2.43856 -3.72021 -8.14651 0.0161169 0.00344498 0.00358581
34 6 0.0403104 -5.24095 -8.7118 0.00904851 -0.00786091 0.00732073
66 6 -0.391255 -2.50953 -4.72422 0.00471899 0.00126057 0.00217898
65 6 -1.36761 -0.913321 -3.29264 0.00176722 0.00293063 -0.000690382
2 1 -0.991348 -5.3035 -8.36403 0.00892117 -0.0038257 0.007787
3 1 -1.44576 -3.9632 -7.7693 0.0135296 -0.00197668 0.00688152
4 2 -1.47915 -4.17463 -6.31861 0.00686478 -0.0033383 0.006327
5 3 -2.16916 -3.19383 -5.57636 0.00586577 -0.00170694 0.0025992
6 3 -3.54632 -2.98373 -5.59436 0.00594788 -0.00158954 -4.83041e-05
7 3 -4.12707 -2.03494 -4.75355 0.00456633 -0.000331357 -0.00256784
8 3 -3.36377 -1.24086 -3.89262 0.0030918 0.00120937 -0.00196652
9 3 -4.02066 -0.387443 -2.98267 0.00314323 0.000875917 -0.00189492
10 4 -5.22731 -0.638579 -2.78358 0.00359555 -0.00180641 -0.00110736
35 6 -1.65332 -5.58981 -9.1809 0.00742494 -0.00217448 0.0084487
39 6 -5.14081 -1.93821 -4.79469 0.004657 -0.000118368 -0.00321481
38 6 -4.14946 -3.53019 -6.20804 0.00712773 -0.00262594 -0.000438518
36 6 -0.743466 -3.16978 -8.02703 0.0186928 -0.00515715 0.0104089
102 5 13.5526 11.1675 10.7545 -0.00119683 -0.00121698 -7.04224e-05
31 1 -1.90672 -5.56901 -6.14367 0.00107138 -0.0018632 0.00326947
30 3 -1.40301 -2.38628 -4.74739 0.00439677 0.000626019 0.00174248
29 3 -1.98127 -1.42858 -3.9187 0.0032022 0.00143156 -0.000780854
32 6 -1.60063 -7.22178 -7.53169 0.00836995 -0.00439922 0.00670618
1 1 -1.09744 -6.30852 -7.21381 0.0057453 -0.00327203 0.00802309
33 6 -0.101112 -6.53411 -6.83222 0.00467638 -0.00151882 0.0122155
68 6 -1.67068 -5.94034 -5.14584 -0.00599414 -0.00341194 0.00427367
ITEM: TIMESTEP
4000
ITEM: NUMBER OF ATOMS
122
ITEM: BOX BOUNDS pp pp pp
0.0000000000000000e+00 2.0000000000000000e+01
0.0000000000000000e+00 2.0000000000000000e+01
0.0000000000000000e+00 2.0000000000000000e+01
ITEM: ATOMS id type xu yu zu vx vy vz
54 6 3.40462 2.99981 6.22232 0.00749945 0.000810497 -0.0112948
60 6 5.87645 4.63194 9.58919 -0.00992044 -0.00480925 0.00414751
58 6 5.31033 2.47199 7.57139 0.000854246 0.00473388 -0.0088687