ITEM: TIMESTEP
10000
ITEM: NUMBER OF ATOMS
122
ITEM: BOX BOUNDS pp pp pp
0.0000000000000000e+00 2.0000000000000000e+01
0.0000000000000000e+00 2.0000000000000000e+01
0.0000000000000000e+00 2.0000000000000000e+01
ITEM: ATOMS id type xu yu zu vx vy vz
17 1 6.97891 0.390123 8.36213 0.00761574 0.00145817 0.00112683
54 6 3.3568 4.9479 6.77761 0.0058753 -0.00221022 0.00693054
50 6 3.78217 2.24859 6.90823 0.00345247 -0.010461 7.00645e-05
56 6 1.68132 5.96996 8.69077 0.0014442 0.00733643 -0.00838515
21 1 3.19067 3.66242 8.51571 0.00376958 -0.00322473 0.00351676
13 3 7.9576 0.193511 3.60942 0.00601757 -0.00106764 0.00828976
15 5 6.5679 0.830426 5.84094 -0.000550606 -0.00310823 0.00373054
52 6 2.50329 3.56043 9.3545 -0.000987699 -0.00484748 0.000639093
71 3 5.15753 8.69795 8.24527 -0.00339629 -0.0012606 -0.00101494
93 5 4.69768 9.211 6.44191 -0.00150714 0.00041831 -0.00552301
24 1 0.18253 4.80927 7.67335 -0.0008109 0.000123249 -0.00299713
53 6 4.04652 4.25365 8.84496 0.00514968 -0.00360186 -0.00194714
73 3 4.37652 9.72797 7.37477 -0.00249393 -0.00116927 -0.00183751
51 6 2.93095 1.46921 8.27377 0.00497502 0.00498498 -0.00243226
48 6 4.9509 2.36927 9.67313 0.00810054 0.00690935 0.00289296
90 5 6.11711 8.85504 7.76496 -0.00261447 -0.000734121 -0.00105197
49 6 5.71496 2.74893 8.11504 0.0115876 -0.000623223 0.00418629
45 6 7.48331 1.35469 8.35696 0.0175326 -0.00270633 0.0202933
20 1 3.62229 2.26633 7.98904 0.00866405 0.00182011 0.000152642
55 6 2.08451 3.72518 6.70348 0.00459001 0.00125663 0.00482684
41 6 8.58034 0.9559 3.87701 0.00476303 -0.00022481 0.0102234
18 1 5.48444 0.637048 8.61898 0.00427134 0.0038283 -0.00288936
19 1 5.00267 2.09273 8.62086 0.00726716 0.00374826 0.00357108
46 6 4.83665 0.0201477 8.00089 0.00932069 0.00591578 -0.00956014
97 5 2.1473 9.30564 7.90176 -0.00479368 -0.00316431 -0.00975518
89 5 4.92979 7.71166 7.84669 -0.00940518 -0.00413108 0.00223016
22 1 2.56475 4.45874 7.34727 0.00358849 0.000681219 0.00557913
72 3 5.39665 8.63397 9.81568 -0.00357291 -0.00538478 -0.00190061
59 6 0.222435 3.99325 8.39273 0.00375158 0.00186988 -0.000129783
23 1 1.51522 5.53488 7.70404 0.000685185 -0.000464317 -0.00477002
57 6 1.51974 6.31925 6.94439 0.000922403 -0.00473842 -0.0096146
107 5 1.90438 9.95479 5.46052 -0.00053761 -0.0039045 -0.00690079
47 6 5.31592 0.303357 9.64038 0.00298334 -0.00421735 -0.00615951
74 3 5.53192 9.93698 10.6849 0.00289659 -0.00466582 -0.000105305
95 5 5.72314 9.53418 11.6693 -0.00210756 -0.00144244 0.00312332
91 5 4.60264 8.11183 10.3472 -0.0161939 0.0037398 -0.00637906
111 5 8.93269 9.02901 11.5963 -0.00233451 0.0059798 0.00188997
112 5 9.32725 9.57939 13.1377 -0.00349435 0.000672498 0.000467528
82 3 9.3529 9.86921 12.114 -0.000125795 0.00423272 0.0029953
92 5 6.16437 7.86042 10.0002 -0.00811908 -0.0111229 -0.000823636
117 5 1.3938 12.4824 5.49763 -0.00134178 0.00177915 -0.000729697
108 5 1.00091 10.5584 6.63022 -0.0023196 0.00349018 -0.00990271
28 3 6.37687 -1.93352 2.90988 0.00506457 -0.00163757 0.00143102
64 6 5.80664 -2.76032 2.73528 0.00427409 0.000130859 -0.00175817
106 5 7.35861 10.923 9.5912 0.000779579 0.00287974 0.00199184
80 3 2.02592 10.6282 6.29555 -0.000322093 -0.000710327 -0.00608847
63 6 5.10647 -1.25144 4.44636 -0.00247224 0.00444999 -0.00617997
27 3 5.98065 -1.08031 3.94842 0.000500691 0.000582923 -0.002292
98 5 2.67581 10.8431 8.18378 -0.00304772 -0.00175201 0.000424784
86 3 2.35409 12.0544 5.7633 -0.00073329 0.00121279 -0.00207573
12 3 8.18126 -0.497615 2.41638 0.00770939 -0.00217554 0.00891469
9 3 7.70777 -2.46541 0.930777 0.00465478 -0.000975508 0.00247168
75 3 2.81482 10.0582 7.48894 -0.00237767 0.000686676 -0.00204241
11 3 7.47081 -1.66102 2.07944 0.00703943 -0.00105582 0.00389985
8 3 8.94945 -2.50289 0.237803 0.00698033 -0.00143869 0.00376828
69 1 1.915 13.753 7.51077 -0.00521996 -0.00818678 0.00734977
40 6 8.90165 -0.143216 1.79124 0.00782537 -5.85998e-05 0.010648
122 6 2.25127 14.4676 8.0895 -0.00619972 -0.0107238 0.0105818
42 6 6.76666 -1.26791 6.99712 0.00993598 -0.00442482 -0.000741676
88 4 2.78008 13.1247 6.67612 -0.00472305 0.00147699 -0.00133028
118 5 3.03001 11.9629 4.85684 0.00345301 0.00332028 0.00715897
70 2 3.92949 13.5876 6.56122 -0.00306517 -0.00133872 0.00487844
16 1 7.27116 -0.30347 7.03771 0.00641818 -0.00188151 -0.000428676
43 6 8.35096 -0.406904 6.91495 0.00687962 0.0054469 -0.0051926
94 5 4.91462 10.6732 7.32419 0.00228877 -0.000850803 -0.00225684
44 6 7.39833 -0.222098 9.16215 -0.00962932 -0.00991822 0.0016525
10 4 6.70621 -3.09678 0.48181 0.00160512 0.00438097 -0.00185952
14 3 6.83521 -0.0718687 4.38216 0.00109593 -0.00114858 0.00218066
85 4 8.49668 11.0199 12.3953 0.000275129 0.0046737 0.00132978
105 5 5.9534 11.9202 10.2289 -0.00474846 0.00194861 0.00254081
116 5 8.72124 11.5409 13.2824 0.000894397 0.00841933 -0.00168932
83 4 7.40929 11.4932 11.6332 -0.00216059 -0.000249172 0.00270927
38 6 9.93727 -2.38284 -2.93806 0.00381734 0.00149976 0.00196109
96 5 4.51639 10.372 10.8231 0.00720474 -0.000235743 -0.00409239
39 6 8.09345 -2.97203 -1.61072 0.00548974 -0.00129532 0.0039884
79 3 6.62077 11.055 10.4302 -0.000330768 0.00175702 0.00195747
7 3 8.95178 -2.69258 -1.13977 0.00540536 -0.000578068 0.00322757
113 5 7.2201 12.4291 11.9265 0.000302369 -0.000203412 0.00319741
121 5 12.7269 7.2673 6.32248 0.000698009 -0.00402733 -0.00137361
87 3 13.1302 7.81478 7.18149 -0.00226207 0.000419263 -0.000422134
81 3 11.0816 9.30671 8.32433 0.00092836 -0.000939252 -0.00289075
115 5 11.1575 7.33943 7.74473 0.00317772 -0.000207211 -0.00769242
119 5 13.9108 7.23252 7.64631 -0.00291866 0.00620144 0.00400235
114 5 12.3035 7.56295 9.04898 0.00986016 0.00663755 0.00570548
62 7 -2.11202 3.68305 7.73042 -0.00746924 0.0103634 0.0271475
109 5 10.8845 9.88052 7.40271 -0.00100613 -0.00296333 -0.00376869
60 6 -1.16534 5.77256 9.08394 -0.00763279 -0.02567 0.00790917
84 3 11.9313 8.00514 8.13445 0.00211298 -1.19264e-05 0.00178835
26 5 -2.38787 4.89994 7.17923 0.00267004 -0.00229449 -0.00684671
120 5 13.7474 8.66432 6.94063 0.00338303 -0.00265984 0.00596413
61 6 -0.892947 6.70483 7.6014 0.002938 0.00575025 0.022391
25 1 -1.00899 5.70116 8.00483 -0.00251171 0.000789772 0.00701329
58 6 -0.0110749 4.41954 6.67216 -0.00963708 -0.000986823 -0.00170143
110 5 10.0837 8.93563 8.55975 0.00483021 -0.00787595 -0.000694338
78 3 10.8702 9.81021 11.8386 0.000395368 0.00316869 0.00390627
103 5 10.8972 8.74388 11.7861 -0.00404747 0.00404203 -0.00830757
104 5 11.427 9.84757 12.7222 0.00322239 -0.00351007 0.00541452
77 3 11.479 10.451 9.27941 -0.00184062 0.000683431 -0.00247124
101 5 12.2904 11.0007 8.88061 0.00234937 0.00276892 0.000803181
102 5 10.6767 11.1204 9.13664 -0.002442 0.000210323 -0.00226695
66 6 12.2707 -2.01316 0.505678 0.00679022 0.00425402 0.00223456
65 6 10.291 -2.21577 1.83087 0.00864613 0.0104796 0.00447675
29 3 10.2085 -2.28433 0.817771 0.00643763 0.0052579 0.00503712
30 3 11.3672 -2.14418 0.0472318 0.00567578 0.00386657 0.00361047
76 3 11.7959 10.4944 10.7732 -0.00322676 -0.00280693 -0.00223002
5 3 11.3024 -2.15476 -1.34554 0.00239998 0.000837816 0.00391718
35 6 13.9586 -1.33132 -4.90418 0.00401046 0.00335527 0.00320836
68 6 13.6336 -3.71815 -1.58295 -0.00355686 -0.0150252 -0.00435917
33 6 15.1431 -3.22429 -3.22567 -0.00139293 0.00233319 0.00621608
4 2 12.5195 -2.0254 -2.0434 0.00365272 -0.000517184 0.00418384
36 6 12.6456 -0.0741971 -2.86254 -0.0119329 -0.00264808 -0.00491689
34 6 14.7598 -1.01358 -3.33753 -0.00051724 0.00667683 0.00823556
1 1 14.1224 -3.02956 -3.55894 0.000151468 0.00452793 0.00373352
32 6 13.8908 -3.60705 -4.45403 0.00709 0.00528832 0.00179066
31 1 13.1047 -3.3072 -2.44165 -0.00105657 -0.00264914 -0.000507919
2 1 13.9443 -1.53897 -3.83412 0.00337204 0.00495292 0.00380209
99 5 11.9078 11.5795 10.8749 -0.000112381 -0.00672429 0.000151248
3 1 12.614 -1.11812 -3.18207 -0.000865006 -0.00446018 0.000208458
6 3 10.0542 -2.37978 -1.92572 0.00308921 0.00139407 0.00239383
67 6 12.3396 -4.01511 -2.7612 -0.00296178 0.00267401 -0.0086836
37 6 11.8048 -1.30796 -3.88538 0.0034465 -0.0153316 -0.0012331
100 5 12.8296 10.1725 10.9907 -0.00321687 0.00568526 0.00200287
ITEM: TIMESTEP
10100
ITEM: NUMBER OF ATOMS
122
ITEM: BOX BOUNDS pp pp pp
0.0000000000000000e+00 2.0000000000000000e+01
0.0000000000000000e+00 2.0000000000000000e+01
0.0000000000000000e+00 2.0000000000000000e+01
ITEM: ATOMS id type xu yu zu vx vy vz
17 1 7.18671 0.283141 8.47954 0.000293226 -0.00325672 -8.44047e-05
54 6 3.52029 5.06895 6.83672 -0.00526023 0.00780488 0.00405275
50 6 4.17278 2.40742 7.13348 0.00799952 -0.00295801 -0.00217342
56 6 1.73045 5.81937 8.70106 -0.0013954 -0.00116665 0.00284324
21 1 3.25656 3.75171 8.52771 0.00809844 0.00215723 0.000823152
13 3 8.20787 0.0505097 3.93808 0.00500528 -0.00592433 0.011037
15 5 6.53427 0.785072 5.79705 -0.000378069 0.000575758 0.000342086
52 6 2.40484 3.40409 9.10975 0.0109278 0.00781348 0.00683197
71 3 5.02089 8.56387 8.1711 -0.00201666 -0.000983711 -0.00174161
93 5 4.58819 9.23621 6.28405 -0.00242864 -0.00236098 -0.00308447
24 1 0.227466 4.65112 7.64054 0.00371379 -0.00500917 -0.00177604
53 6 3.85278 4.43427 9.13151 0.00581198 0.000800479 0.00576464
73 3 4.2829 9.59126 7.23815 -0.00166222 -0.0046906 -0.00301549
51 6 3.39397 1.69596 8.54142 -0.000175498 0.00856772 0.0101861
48 6 5.56815 2.50598 9.8367 -0.00348139 0.0115972 0.00232019
90 5 6.02235 8.50896 7.76221 -0.000498516 -0.0100634 0.00244333
49 6 6.21036 2.61257 8.17724 0.00320633 -0.0014304 -0.00015498
45 6 7.84578 1.08505 8.81406 0.00967471 -0.0119494 0.000248674
20 1 4.07526 2.47898 8.2125 0.00490162 -0.000446097 -0.0015454
55 6 2.35931 3.78435 6.54319 0.00502309 -0.00104023 -0.00104155
41 6 8.79699 0.805005 4.29048 0.00484683 -0.00784985 0.0142114
18 1 5.7136 0.618085 8.81439 0.00506243 0.00320493 0.0113676
19 1 5.46343 2.14434 8.81301 0.00357624 0.00372526 0.00439893
46 6 5.0921 0.145147 8.05555 -0.00168801 0.00844342 0.0131701
97 5 2.03735 9.11605 7.35803 -0.00117966 -0.00340764 -0.0118561
89 5 4.66634 7.53427 8.02547 -0.000268311 -0.00183696 0.00269846
22 1 2.72185 4.48692 7.29267 0.000380291 -0.00169547 0.00200774
72 3 5.09126 8.63968 9.72159 -0.00351866 0.00426189 -0.00366336
59 6 0.260265 3.79826 8.31869 0.00869346 -0.000959018 0.0012827
23 1 1.57442 5.42433 7.69654 -0.000457007 -0.00415215 0.00386894
57 6 1.5578 6.24346 6.98082 -0.00290484 -0.00873287 -0.000436587
107 5 1.81321 10.0429 5.15607 -0.00237538 0.0102362 -0.000942104
47 6 5.4776 0.195522 9.79421 0.00206926 0.00245958 0.0110279
58 6 0.0320011 4.2805 6.63396 0.00861025 -0.0149186 0.00115514
92 5 5.61018 7.7135 9.91468 -0.0136058 0.0036097 -0.000673053
74 3 5.6751 9.75023 10.7502 -0.00220345 0.000384097 -0.000282604
95 5 5.5814 9.33862 11.7778 -0.00133285 -0.00453551 -0.000618754
91 5 4.05231 8.36151 9.94194 -0.000682367 0.00467432 -0.00217608
111 5 8.92164 9.1764 11.7262 0.00163187 0.000545425 0.00118544
112 5 9.2462 9.45342 13.3761 -0.000118703 -0.000633799 0.00513539
82 3 9.36281 9.92258 12.3593 -0.00161627 0.000269212 0.00447342
117 5 1.32422 12.4983 5.13665 0.00114038 -6.17187e-06 -0.00800942
108 5 0.869579 10.7933 6.32232 -0.00118836 0.00176464 -0.00192205
28 3 6.49201 -1.88636 2.90325 0.00705936 -0.00330571 0.00372812
64 6 5.82579 -2.55144 2.51189 0.0111475 -0.00939084 0.00560176
106 5 7.17479 11.2085 9.70062 -0.00280911 0.00111533 -0.00372341
80 3 1.92301 10.6705 6.07071 -0.00284449 0.00367662 -0.000924001
63 6 5.30458 -1.494 4.59664 0.00115857 0.00135554 0.00104163
27 3 6.1683 -1.26847 4.10067 0.00251557 -0.000464613 0.00237599
98 5 2.55659 10.4706 8.2632 -0.00609689 -0.00832734 -0.00546906
86 3 2.21551 12.1494 5.70949 -0.000684899 0.00308772 -0.0016843
12 3 8.57745 -0.647171 2.81959 0.00476799 0.00308626 0.00610555
9 3 8.00146 -2.23173 1.05765 0.00386001 0.00313909 -0.000615527
75 3 2.71121 9.96669 7.27768 -0.000584285 -0.00265856 -0.00639572
11 3 7.71326 -1.60211 2.27269 0.00420502 0.00607058 -0.000797497
8 3 9.2146 -2.26708 0.36106 0.00618167 0.00195861 0.00267283
69 1 1.73408 13.6293 7.67822 -0.00403316 -0.000453446 0.00235184
40 6 9.44365 -0.36329 2.37984 0.00319595 0.00768393 0.00477977
122 6 2.00872 14.3921 8.2332 0.00744955 -0.00715484 0.00685653
42 6 7.16077 -1.22269 6.93457 -0.00306057 0.00746818 -0.00463111
88 4 2.60244 13.0834 6.79995 -0.00778367 0.00151028 8.85376e-05
118 5 3.03922 12.2592 5.00146 -0.000585128 0.00563401 -0.00275352
70 2 3.73079 13.6163 6.76028 -0.00602933 -0.00261818 0.0044069
16 1 7.43416 -0.169429 7.02008 0.00303068 0.00533828 -0.00142135
43 6 8.50193 -0.0954141 6.81723 0.00382541 -0.0020953 0.000823264
94 5 4.89731 10.4681 7.28443 -0.00397923 -0.00331637 0.000675734
44 6 7.44211 -0.593302 9.0753 0.00901794 -0.00868099 -0.0113908
10 4 7.08516 -2.88709 0.525597 0.00365322 0.00165967 0.00143843
14 3 7.01268 -0.264379 4.54735 0.00280015 -0.00231035 0.00579936
85 4 8.5911 11.2447 12.3366 -0.00199201 0.00192221 0.0030797
105 5 5.92457 11.8406 10.4037 -0.00259747 -0.0031602 0.00558927
116 5 8.80237 11.9669 12.9969 0.00698854 0.0083176 -0.00544278
83 4 7.40635 11.6908 11.7105 -0.00374789 -0.000340984 0.00441238
113 5 7.03909 12.6232 12.0795 -0.00347154 0.00217653 8.24665e-05
96 5 4.83115 10.3716 10.7022 -0.000413878 0.00165146 0.00103718
39 6 8.2542 -2.63472 -1.50112 0.00554494 0.00227904 0.00200772
79 3 6.62923 11.0547 10.6018 0.000395903 -0.000906964 0.000738944
7 3 9.14033 -2.52002 -1.01037 0.00546944 0.00119716 0.00253312
121 5 13.0482 7.26386 6.29837 0.0101368 0.00342832 0.00084939
87 3 13.3076 7.83837 7.18576 0.006869 4.92033e-05 0.00128333
81 3 11.1416 9.28836 8.22405 0.00148857 -0.000677396 -0.000880929
115 5 11.4763 7.27425 7.7368 0.00604638 -0.00235598 0.0052342
119 5 13.7768 7.12986 7.90603 0.00156344 -0.00576837 0.00257301
114 5 12.4752 7.65217 8.95384 -0.00163052 -0.00182685 -0.00618999
62 7 -2.93981 4.36857 8.05138 0.000657047 0.0140509 0.00358526
109 5 10.7901 9.6475 7.25203 -0.00100629 -0.00313882 -0.00168777
60 6 -1.20158 5.26164 9.08525 0.00529373 -0.00088398 -0.00480509
84 3 12.0994 8.06727 8.05477 0.00328761 0.00018401 -0.00352832
26 5 -2.31846 4.90024 6.96436 -0.000157454 0.00244312 -0.0021318
120 5 13.9009 8.72462 6.89874 0.00436564 0.00207996 -0.00419797
61 6 -0.789085 6.55641 7.89913 0.00215326 -0.00821418 -0.00283609
25 1 -0.972866 5.48932 8.04381 0.00567404 -0.00884494 -0.00766538
110 5 10.2462 8.73476 8.45491 0.000106194 0.000996331 -0.000509001
78 3 10.8784 9.76708 11.9714 -0.00287687 -0.00094451 -0.00131884
103 5 10.856 8.72887 11.6715 0.00266486 -0.00392342 0.00741777
104 5 11.4958 9.79879 12.905 -0.0036122 -0.000770957 -0.00458594
77 3 11.4221 10.5255 9.2227 -0.00261173 -0.000520454 0.000713023
101 5 12.2788 11.0899 8.82035 -0.00595909 -0.000810589 -0.000593313
102 5 10.5991 11.2295 9.02929 0.00163647 0.00111943 -0.00110524
66 6 12.493 -1.70975 0.59589 0.0101615 -0.00646782 -0.000345611
65 6 10.5968 -2.19041 1.97365 0.0067448 0.00700168 0.00258128
29 3 10.4788 -2.16183 0.962714 0.00649215 0.0049071 0.00241859
30 3 11.5973 -1.96947 0.181857 0.00804821 -0.0020407 0.00182706
76 3 11.6711 10.5319 10.8219 -0.00294535 0.00442208 0.00201609
5 3 11.4885 -2.23656 -1.17184 0.00309211 -0.00313119 0.00150516
35 6 14.0427 -1.0766 -4.60731 0.000423841 0.00295607 0.0038565
68 6 13.4782 -4.06503 -1.77104 0.00147251 -0.005616 -0.000378426
33 6 15.2058 -3.0414 -2.90598 0.00926642 0.00317863 -0.000871392
4 2 12.6372 -2.10615 -1.91451 0.00108564 -0.00441323 -0.00169392
36 6 12.3338 -0.169087 -2.78169 0.00363018 0.0032836 0.0133371
34 6 14.6352 -0.841273 -2.93897 -0.00411874 0.0020496 0.003857
1 1 14.2539 -2.89715 -3.41588 0.00674117 0.00246904 0.00286679
32 6 14.2428 -3.43721 -4.3636 0.000306033 0.00658761 0.000375609
31 1 13.1168 -3.35563 -2.51693 0.00449834 -0.00361043 -8.69909e-05
2 1 13.9475 -1.40096 -3.57231 -0.00189619 0.000691375 0.00267019
99 5 11.5924 11.5847 11.1412 -0.00964072 0.00691089 0.00726493
3 1 12.5253 -1.20579 -3.05887 6.22187e-05 0.00449057 0.00495635
6 3 10.2961 -2.64362 -1.74572 0.00267078 -0.0017585 0.00114551
67 6 12.3535 -3.80223 -3.15156 0.0046752 0.00172393 -0.00375693
37 6 11.8067 -1.52892 -3.81131 -0.00349357 0.00765031 0.00680954
100 5 12.7362 10.2463 10.9964 -0.00102652 -0.0010523 -0.00170473
38 6 10.2309 -2.93831 -2.71805 0.000490476 -0.00415289 0.00226555
ITEM: TIMESTEP
10200
ITEM: NUMBER OF ATOMS
122
ITEM: BOX BOUNDS pp pp pp
0.0000000000000000e+00 2.0000000000000000e+01
0.0000000000000000e+00 2.0000000000000000e+01
0.0000000000000000e+00 2.0000000000000000e+01
ITEM: ATOMS id type xu yu zu vx vy vz
17 1 7.32297 0.411714 8.68828 0.0054501 0.00772166 0.00750384
54 6 3.54938 4.94858 6.78811 0.00327063 -0.0125247 -0.0102558
50 6 4.4417 2.34992 7.12473 0.00329497 -0.0029912 0.00672968
56 6 1.72253 5.48317 8.76905 0.00457774 -0.0128338 0.00485193
21 1 3.78759 3.85545 8.59245 0.00534251 0.00178035 -0.00339094
13 3 8.32905 0.133059 4.12788 -0.00194178 0.0113264 -0.00412465
15 5 6.47828 0.813728 6.01391 0.00014873 -0.00211854 0.00428258
52 6 3.18557 3.79368 9.49969 0.00411026 0.00729446 -0.00397213
71 3 4.95368 8.53843 8.15873 -0.00554545 0.00168399 0.00241537
93 5 4.50848 9.0193 6.0872 -0.0015479 -0.00170052 0.00027413
24 1 0.346565 4.3542 7.55056 0.00082029 -0.00426252 -0.0017757
53 6 4.61287 4.54913 8.76054 0.00893406 -0.00111191 -0.0142498
73 3 4.18535 9.48601 7.07582 -0.00252434 -0.0018596 -0.00152051
51 6 3.46279 1.74473 8.50379 0.00319136 0.00495417 -0.00121273
48 6 5.45061 2.68572 9.92856 0.00778464 0.00416822 0.00236597
90 5 6.01595 8.30908 7.85235 -0.00367145 0.00426517 0.000935179
49 6 6.31309 2.74396 8.39977 0.00210555 0.00248691 0.00440506
45 6 7.96482 1.28583 8.83354 -0.0163576 0.0257646 0.00089722
20 1 4.22575 2.45589 8.18785 0.00809613 0.00249652 0.00548753
55 6 2.61512 3.43507 6.80159 0.00163875 -0.0106413 0.00445883
41 6 8.91625 0.879443 4.50357 -0.00442986 0.0178932 -0.012301
18 1 5.88148 0.726574 9.14389 -0.00050799 -0.00393745 0.00605318
19 1 5.52725 2.22014 8.9475 0.00528246 -0.00185276 0.00411611
46 6 5.17589 0.101784 8.59639 0.000219156 0.00100546 0.000750853
97 5 2.03998 8.89787 6.72652 0.00171899 -0.00322606 -0.0127032
89 5 4.59248 7.50978 8.06658 -0.00388822 0.000888389 -0.000704947
22 1 2.93005 4.29092 7.39845 0.0026151 -0.00570894 -0.00344085
72 3 4.92438 8.70483 9.74957 -0.0045412 -0.00172176 0.00382238
59 6 0.289705 3.50031 8.22295 -0.00045777 -0.00804952 -0.00481827
23 1 1.67416 5.08951 7.75467 0.00284183 -0.00489959 0.00106717
57 6 1.68415 5.93833 7.07329 0.00292285 0.00390759 0.011715
107 5 1.74171 10.4679 4.96777 -0.00128286 0.00316106 -0.00767509
47 6 5.77103 0.46258 10.1967 -0.00203128 -0.00919704 0.00395811
58 6 0.289273 4.00192 6.52004 -0.00348581 0.00688677 -0.00529099
92 5 5.40879 7.75976 10.08 0.00427103 0.000685821 0.00597205
74 3 5.39423 9.88545 10.6853 -0.00647671 0.00130559 0.000346845
95 5 5.63765 9.29378 11.527 0.00073845 0.00140224 -0.00443292
91 5 3.92672 8.60873 10.2172 -0.00684561 0.0048455 0.00432216
111 5 8.78487 9.17797 11.811 -0.00622988 -0.0009198 0.00278662
112 5 9.26422 9.64624 13.3853 0.000523083 0.00573705 -0.00200885
82 3 9.32589 9.9371 12.3312 0.000389529 -0.000925704 -0.0041912
117 5 1.36366 12.6569 4.93607 0.00022139 0.00652279 0.000182499
108 5 0.850999 10.8054 6.44926 0.0013551 0.000396011 0.00228078
28 3 6.78534 -1.94925 3.1196 0.00259625 0.00360638 0.00535389
64 6 6.20194 -2.73175 2.8212 0.00242308 0.00459716 0.00459266
106 5 7.03842 11.0057 9.63432 -0.00528381 -0.00550862 0.0020324
80 3 1.86709 10.8341 5.97923 -0.00212221 -0.00168554 -0.00567526
63 6 5.43119 -1.42173 4.61663 0.00378034 -0.0013325 0.0114405
27 3 6.33286 -1.19529 4.19683 0.00153206 0.00148792 0.00757773
98 5 2.16015 10.265 7.84629 -0.00457934 -0.00519654 -0.00558975
86 3 2.20593 12.3082 5.57341 0.000258879 -0.000655265 -0.000917978
12 3 8.73881 -0.576267 3.00013 0.00388971 -0.0017402 0.00707411
9 3 8.23931 -2.20394 1.2076 0.00330028 0.000598451 0.0042423
75 3 2.5969 9.81719 6.9607 -0.00087494 -0.00327603 -0.00661083
11 3 7.9672 -1.605 2.44457 0.00394954 0.000651145 0.00483584
8 3 9.41004 -2.2598 0.441944 0.00289778 -0.0021752 0.000441684
69 1 1.36699 13.5533 7.56723 -0.00445656 0.00183894 -0.00914908
40 6 9.58739 -0.249347 2.55416 0.00899402 -0.0101595 0.012021
122 6 1.49338 14.0695 8.39034 -0.0111871 0.0112134 -0.0142201
42 6 6.95871 -1.0777 7.23715 -0.00669829 -7.18968e-06 0.00557764
88 4 2.41156 13.1642 6.7669 0.000562561 -0.0042614 0.00188189
118 5 3.07645 12.3707 4.9001 0.000915181 0.000182943 0.00107809
70 2 3.5594 13.6258 6.9979 -0.00495453 0.006203 0.00549967
16 1 7.41565 -0.091248 7.23285 -0.000529085 -0.00238594 0.00829489
43 6 8.45725 -0.183189 6.92173 -0.00299413 -0.0135197 0.00351783
94 5 4.63803 10.4783 7.18524 -0.00435499 -0.000224254 -0.00559126
44 6 7.72702 -0.41097 9.27533 0.0138617 0.015922 0.0120641
10 4 7.23451 -2.70681 0.672259 0.00175604 0.00280534 0.0044541
14 3 7.10036 -0.156654 4.71587 0.00119554 0.00554643 0.00101396
85 4 8.64163 11.2806 12.2813 0.0020007 -0.00200136 -0.00867999
105 5 5.72874 11.7339 10.6179 6.28465e-06 -0.000280462 -0.000303589
116 5 8.91223 12.0838 12.929 -0.00573151 -0.00577544 0.000218408
83 4 7.40625 11.5485 11.6397 0.00243241 -0.00283117 -0.00849717
113 5 7.00773 12.4179 11.9709 0.00118524 -0.00440109 -0.00173469
96 5 4.46408 10.461 10.9064 -0.00996648 -0.000893294 0.00509256
39 6 8.40919 -2.81451 -1.3579 0.000991108 0.00652181 -0.00223984
79 3 6.5135 10.9675 10.571 -0.00444822 -0.00250523 -0.00136954
7 3 9.30502 -2.61032 -0.914772 0.0019133 0.000707671 -0.00138343
121 5 13.3862 7.33981 6.22512 0.00107166 0.00107599 -0.00176713
87 3 13.4828 7.84808 7.20365 0.00245345 -6.57577e-05 0.000525747
81 3 11.1211 9.20657 8.28583 0.000206352 -0.00314727 0.00221604
115 5 11.4671 7.11935 7.71139 -0.00130769 8.45622e-05 -0.00284478
119 5 14.1791 7.22095 7.72062 0.0105137 0.00483627 -0.00499316
114 5 12.4694 7.62135 9.13084 0.000230763 -0.000157098 0.00658481
62 7 -3.01464 4.7179 8.02113 -0.00221447 0.00278189 -0.00251845
109 5 10.9108 9.68502 7.31185 0.00493034 0.00074628 0.00412461
60 6 -1.1192 5.24401 8.85124 -0.00287274 -0.00422097 -0.0050685
84 3 12.1398 7.94211 8.11269 0.00121056 -0.00245592 0.00191998
26 5 -2.32617 4.99253 6.88099 0.00130778 0.000444463 -0.00112189
120 5 14.157 8.69524 7.08212 0.00157831 0.000760385 0.0101529
61 6 -0.572149 6.35543 7.61549 0.00563388 0.000223023 -0.00405099
25 1 -0.845023 5.31897 7.80002 -0.000300638 0.00168461 -0.00236371
110 5 10.1505 8.8166 8.62765 -0.00246535 0.000247439 0.00335069
78 3 10.7905 9.67781 11.9153 0.00240859 -6.56094e-05 0.000625831
103 5 10.9731 8.59055 11.9103 -0.000328125 0.000195942 -9.91123e-05
104 5 11.3795 9.94507 12.777 0.000661011 0.00695679 0.00177921
77 3 11.2906 10.4836 9.20378 -0.000801837 -0.001202 -0.00159328
101 5 12.1651 11.0329 8.84216 0.00161703 -0.000921406 0.00103817
102 5 10.4517 11.1898 9.02966 -0.00689487 -0.00353521 -0.000477003
66 6 12.7228 -2.06758 0.631835 0.00380128 0.00283318 -0.00259641
65 6 10.8314 -1.91656 1.97681 0.0036009 -0.0125371 0.00301485
29 3 10.6819 -2.0602 0.984803 0.00374291 -0.00770307 0.00236087
30 3 11.8032 -2.17797 0.204934 0.00284321 0.000589996 -0.000609044
76 3 11.4373 10.5035 10.7592 -0.000969777 -0.0039084 -0.0033111
5 3 11.6859 -2.38412 -1.15449 0.00470839 -0.000437769 -0.000150014
35 6 13.8944 -1.06427 -4.69938 -0.0055878 -0.00504962 7.91756e-05
68 6 13.7636 -4.207 -1.97 0.00456264 -0.000832711 -0.0120773
33 6 15.4728 -2.80218 -2.94012 0.00785786 -0.00433239 -0.00480434
4 2 12.8989 -2.26981 -1.83644 0.00814434 0.000327541 0.00291774
36 6 12.8351 -0.216416 -2.27276 0.0128423 -0.0009387 0.00600792
34 6 14.888 -0.624233 -3.27084 0.00641999 0.00216455 -0.0107107
1 1 14.5121 -2.74871 -3.45478 0.00832925 -0.000804604 -0.00478574
32 6 14.5689 -3.24275 -4.42388 0.0102596 -0.00136681 -0.00428311
31 1 13.3927 -3.40662 -2.61054 0.00698821 0.00553007 -0.00520745
2 1 14.1055 -1.28231 -3.65132 0.00503672 -0.00149077 -0.00121316
99 5 11.5122 11.5276 11.0167 0.00173139 -0.00468545 -0.0102588
3 1 12.8389 -1.16758 -2.80424 0.00776807 0.000361705 0.00400641
6 3 10.4322 -2.62171 -1.72556 0.00492778 -0.00499439 0.00109077
67 6 12.6189 -3.80731 -3.26484 0.00127891 0.0141057 -0.00350245
37 6 11.9696 -1.25272 -3.45711 0.00233207 0.00871973 0.0105513
100 5 12.442 10.4017 10.9619 -0.00267338 0.00202952 0.000450103
38 6 10.3219 -2.80325 -2.72399 0.00648371 -0.00908117 0.00136098
ITEM: TIMESTEP
10300
ITEM: NUMBER OF ATOMS
122
ITEM: BOX BOUNDS pp pp pp
0.0000000000000000e+00 2.0000000000000000e+01
0.0000000000000000e+00 2.0000000000000000e+01
0.0000000000000000e+00 2.0000000000000000e+01
ITEM: ATOMS id type xu yu zu vx vy vz
17 1 7.51696 0.404671 8.83184 0.00133086 -0.00280192 0.000364521
54 6 3.14933 4.26808 6.36505 -0.0190487 -0.0184014 -0.00590983
50 6 4.57471 2.05337 7.48633 0.0117517 0.000150398 0.0071204
56 6 1.68125 5.17062 8.85446 -0.00451284 -0.00736288 -0.00174843
21 1 3.93105 3.89711 8.35434 0.00332669 0.00451596 -0.00218323
13 3 8.37801 0.302346 4.16979 0.00476038 -0.00397041 0.00393481
15 5 6.64531 0.792553 6.2709 0.00658953 0.00160738 0.00188268
52 6 3.65484 4.27391 9.33889 0.0157608 0.0224916 -0.00545674
71 3 4.61834 8.62358 8.22704 -0.00570729 0.00207079 -0.000597283
93 5 4.42449 9.00032 6.23002 -0.000889595 -0.0023855 0.000675504
24 1 0.334119 4.4651 7.31689 -0.00173494 0.006881 -0.00633748
53 6 4.77163 4.45959 7.9457 0.00564319 -0.00521291 -0.0109136
73 3 4.04585 9.53564 7.07921 -0.00161814 0.00186025 0.000603398
51 6 3.59176 1.87308 8.94902 -0.00364134 0.00302162 0.00826158
48 6 5.37582 2.59824 10.3867 -0.0036352 -0.00585125 0.00622251
90 5 5.59679 8.63868 7.8705 -0.00726078 0.00282726 -0.00259898
49 6 6.43915 2.99752 9.01079 -0.00723898 0.0053209 -0.00686535
45 6 8.21438 1.23822 8.77615 0.00677071 -0.00917738 0.00110416
20 1 4.39836 2.44038 8.48355 -0.00191405 -0.000945045 0.00694829
55 6 2.30633 3.02219 7.27064 -0.00801979 -0.00570637 0.0229264
41 6 8.91024 1.10918 4.49895 0.00844078 -0.00863367 0.00825669
18 1 6.11261 0.858806 9.37367 0.00775659 0.00364604 0.00716825
19 1 5.65228 2.33243 9.36473 0.000110301 0.000960858 0.00635733
46 6 5.36651 0.260492 8.85356 -0.000246832 0.00152818 0.0194708
97 5 2.10934 8.83746 6.1948 0.00148353 -0.000200694 -0.0080299
89 5 4.37904 7.55876 8.08114 -0.0038599 0.0004074 0.00202208
22 1 2.77808 3.99948 7.35577 -0.00341055 -0.00642236 0.00291889
72 3 4.70653 8.79688 9.79845 -0.00637393 0.00352236 -0.00212736
59 6 0.135919 3.49108 7.77285 0.00413991 0.00235293 -0.0143629
23 1 1.70359 5.01358 7.77576 0.00102618 -0.00312877 -0.00167742
57 6 1.90383 5.95663 7.2708 0.00731644 -0.00282598 0.00203643
75 3 2.52616 9.72722 6.70897 -0.00218861 -0.00139677 0.000153552
58 6 0.302927 4.37051 6.23144 -0.00495824 0.00941554 -0.00714673
74 3 5.15406 9.90125 10.779 -0.00267659 -0.00153644 0.00249104
95 5 5.40063 9.30215 11.674 -0.00664336 0.000863751 0.00634444
91 5 3.73577 8.50316 10.1311 -0.00224096 -0.00757048 -0.00248555
111 5 8.78568 8.92819 11.9174 0.00483049 -0.00853628 0.000381815
112 5 9.30363 9.85115 13.3125 0.00110838 -1.17211e-05 0.000127033
82 3 9.26174 9.85439 12.2265 -0.00208284 -0.00190462 -0.00128766
92 5 5.35212 8.04543 10.2199 -0.00637256 0.00475444 -0.00256006
47 6 6.08418 0.592169 10.4298 0.019378 0.0114214 0.00964984
117 5 1.483 12.8422 5.12049 0.000954888 -0.00010117 0.00201228
108 5 0.915029 10.7998 6.17433 -0.00243271 0.0010028 -0.0089545
28 3 6.95585 -1.87646 3.26196 0.004215 -0.00163565 0.00102231
64 6 6.40235 -2.69183 3.00109 0.0049563 -0.00236918 -0.000502263
106 5 6.84562 10.8951 9.5036 0.000535092 0.00282372 0.000151291
80 3 1.88173 10.8032 5.75749 0.000683414 0.000900695 -0.000310826
63 6 5.67132 -1.45628 4.85002 0.00322397 0.00323063 -0.000406708
27 3 6.52707 -1.16424 4.37851 0.0050254 0.000441425 0.0012622
98 5 2.02995 9.82395 7.66924 -0.00580333 -0.00822631 -0.00404662
86 3 2.26391 12.3339 5.66004 0.00167493 0.00169596 -0.00112043
12 3 8.76923 -0.360976 2.986 -0.00315543 0.00610877 -0.00459941
9 3 8.37107 -2.20588 1.31952 0.00374438 0.00206486 -0.000668962
14 3 7.24391 -0.0902598 4.88657 0.00541065 -0.00209237 0.0046503
11 3 8.07962 -1.49512 2.51265 0.00130174 0.00126223 -0.00090198
8 3 9.58365 -2.36028 0.596059 0.00645577 0.00215304 0.00269873
69 1 1.16571 13.86 7.30944 -0.00115005 0.00603836 -0.00334634
40 6 9.55642 0.00749173 2.45151 -0.00813106 0.0105819 -0.00953296
122 6 1.21947 14.5943 7.96067 -0.00639595 0.0112737 -0.00829342
42 6 6.95632 -1.25413 7.50601 0.0105458 -0.0112143 0.00576084
88 4 2.30467 13.3053 6.78668 -0.000535022 -0.00184404 0.0034398
118 5 3.12431 12.4203 4.98038 0.00192084 0.00401279 0.00119187
70 2 3.44223 13.646 7.17591 -0.000260568 -0.00228607 0.00343958
16 1 7.49151 -0.304907 7.44768 0.0027277 -0.00763765 0.00264081
43 6 8.49914 -0.517652 7.08102 0.011254 0.00737568 0.0147593
94 5 4.63237 10.4365 7.04265 0.00252211 0.00147416 0.0017249
44 6 7.91765 -0.293431 9.57001 0.00774178 -0.0012774 0.000169113
10 4 7.33275 -2.70424 0.83321 0.00431483 -0.00313655 0.000545487
107 5 1.63039 10.3597 4.76285 0.000209232 -0.00265791 0.00127637
85 4 8.33498 10.9975 12.1855 -0.00560598 -0.00217919 -0.00150833
105 5 5.77727 11.9373 10.2995 -0.00195329 0.00576273 -0.0110151
116 5 8.60803 11.7412 12.791 -0.00668643 -0.00335785 -0.00101653
83 4 7.16178 11.436 11.5526 -0.00322464 0.00210848 -0.00328801
113 5 7.02633 12.4283 11.8347 -0.00355938 0.00135364 -0.00421839
96 5 4.22378 10.3199 11.0874 -0.00195867 0.000699845 0.00196802
39 6 8.66717 -2.89361 -1.22902 0.00429371 -0.0104854 0.00725233
79 3 6.27805 10.9812 10.4462 -0.00490098 0.00463729 -0.00190027
7 3 9.55379 -2.67844 -0.773123 0.00425883 -0.00485661 0.00504634
121 5 13.3267 7.67289 6.39936 -4.16969e-05 0.010572 0.00523654
87 3 13.5921 7.96079 7.40791 0.00122098 0.00453689 0.00643991
81 3 11.2114 9.09603 8.35551 0.00131997 -0.00216692 -0.000782198
115 5 11.6531 7.25658 7.7455 0.00473721 9.37166e-05 -0.00102195
119 5 14.3431 7.20535 7.72394 -0.00510493 -0.00177142 0.00424987
114 5 12.4579 7.42002 9.11527 0.00141565 -0.00740391 0.00151385
62 7 -2.94122 4.91841 7.97236 -0.00409088 0.00871555 -0.00457772
109 5 11 9.56825 7.3974 -0.00381256 -0.00218718 -0.00153735
60 6 -0.919592 5.20303 8.85283 0.00889714 0.00905882 0.00654904
84 3 12.2739 7.95413 8.23085 0.0021941 -0.000761683 0.00392603