LAMMPS (8 Feb 2023)
OMP_NUM_THREADS environment is not set. Defaulting to 1 thread. (src/comm.cpp:98)
  using 1 OpenMP thread(s) per MPI task
# define variables

variable       spacing index 10.0
variable       lbox index 20.0
variable       sname string combined_mc
variable       rtemp index 300

units           real
atom_style      full
boundary        p p p
#pair_style      lj/cut/coul/long  14
pair_style      lj/charmm/coul/long/opt 9 10.00000
#pair_modify     mix arithmetic tail yes
#special_bonds   lj/coul 0.0 0.0 1.0
#kspace_style    ewald 0.0001
bond_style      harmonic
angle_style     harmonic
dihedral_style  harmonic
improper_style  umbrella
kspace_style    pppm 0.0001

# initialize a simple cumbic box for the initial structure

lattice        sc ${spacing}
lattice        sc 10.0
Lattice spacing in x,y,z = 10 10 10
region         mybox block 0 ${lbox} 0 ${lbox} 0 ${lbox} units box
region         mybox block 0 20.0 0 ${lbox} 0 ${lbox} units box
region         mybox block 0 20.0 0 20.0 0 ${lbox} units box
region         mybox block 0 20.0 0 20.0 0 20.0 units box
create_box     8 mybox                bond/types 13                angle/types 5                dihedral/types 11                improper/types 1                extra/bond/per/atom 13                extra/angle/per/atom 10                extra/dihedral/per/atom 20                extra/improper/per/atom 20                extra/special/per/atom 100
Created orthogonal box = (0 0 0) to (20 20 20)
  2 by 2 by 2 MPI processor grid

molecule       xlig xlig.lammps.txt
Read molecule template xlig:
  1 molecules
  0 fragments
  68 atoms with max type 7
  70 bonds with max type 10
  128 angles with max type 4
  188 dihedrals with max type 11
  39 impropers with max type 1
molecule       oleic oleic.lammps.txt
Read molecule template oleic:
  1 molecules
  0 fragments
  54 atoms with max type 6
  53 bonds with max type 13
  100 angles with max type 5
  141 dihedrals with max type 9
  9 impropers with max type 1


pair_modify          mix geometric
#neighbor             2.0 multi
#neigh_modify         every 2 delay 4 check yes
thermo_style         multi
thermo_modify        line multi format float %14.6f flush yes



# originally used box instead of single, which takes no args and auto populates the box until full
create_atoms   0 single 0  0  0   mol xlig 42 units box
Created 68 atoms
  using box units in orthogonal box = (0 0 0) to (20 20 20)
  create_atoms CPU = 0.002 seconds
create_atoms   0 single 10 10 10  mol oleic 42 units box
Created 54 atoms
  using box units in orthogonal box = (0 0 0) to (20 20 20)
  create_atoms CPU = 0.001 seconds

# coeffs
# Masses

mass    1 1.2011E+01 # C_3
mass    2 1.4007E+01 # N_3
mass    3 1.2011E+01 # C_R
mass    4 1.5999E+01 # O_2
mass    5 3.2060E+01 # S_3
mass    6 1.0080E+00 # H_
mass    7 1.0080E+00 # H___A
mass    8 1.5999E+01 # O_R


pair_coeff           1 1 0.09510000 3.47299041 # C_3 C_3
pair_coeff           2 2 0.07740000 3.26256026 # N_3 N_3
pair_coeff           3 3 0.09510000 3.47299041 # C_R C_R
pair_coeff           4 4 0.09570000 3.03315369 # O_2 O_2
pair_coeff           5 5 0.34400001 3.59032202 # S_3 S_3
pair_coeff           6 6 0.01520000 2.84642134 # H_ H_
pair_coeff           7 7 0.01520000 2.84642134 # H___A H___A
pair_coeff           8 8 0.09570000 3.03315369 # O_R O_R


pair_modify          mix geometric
neighbor             2.0 multi
neigh_modify         every 2 delay 4 check yes
thermo_style         multi
WARNING: New thermo_style command, previous thermo_modify settings will be lost (src/output.cpp:896)
thermo_modify        line multi format float %14.6f flush yes

bond_coeff           1 350 1.53000 # C_3 C_3
bond_coeff           2 350 1.09000 # C_3 H_
bond_coeff           3 350 1.46200 # N_3 C_3
bond_coeff           4 350 1.39200 # N_3 C_R
bond_coeff           5 525 1.39000 # C_R C_R
bond_coeff           6 350 1.02000 # C_R H_
bond_coeff           7 700 1.25000 # O_2 C_R
bond_coeff           8 350 1.73000 # S_3 C_R
bond_coeff           9 350 1.80000 # S_3 C_3
bond_coeff           10 350 1.36000 # S_3 H___A
bond_coeff           11 525 1.35000 # O_R C_R
bond_coeff           12 350 0.98000 # O_R H___A
bond_coeff           13 350 1.46000 # C_R C_3


angle_coeff          1 50 109.47100 # X C_3 X
angle_coeff          2 50 106.70000 # X N_3 X
angle_coeff          3 50 120 # X C_R X
angle_coeff          4 50 92.10000 # X S_3 X
angle_coeff          5 50 120 # X O_R X


dihedral_coeff       1 0.08333 -1 6 # C_R C_R C_3 X
dihedral_coeff       2 0.08333 -1 6 # O_2 C_R C_3 X
dihedral_coeff       3 0.08333 -1 6 # O_R C_R C_3 X
dihedral_coeff       4 0.11111 1 3 # X C_3 C_3 X
dihedral_coeff       5 0.16667 1 3 # X C_R C_3 X
dihedral_coeff       6 3.12500 -1 2 # X C_R C_R X
dihedral_coeff       7 0.16667 1 3 # X N_3 C_3 X
dihedral_coeff       8 0.12500 -1 6 # X N_3 C_R C_R
dihedral_coeff       9 6.25000 -1 2 # X O_R C_R X
dihedral_coeff       10 0.33333 1 3 # X S_3 C_3 X
dihedral_coeff       11 0.50000 -1 2 # X S_3 C_R X

improper_coeff       1 13.33333 0 # C_R X X X

timestep             0.5

print                .
.
print                ==========================================
==========================================
print                "500 steps CG Minimization"
500 steps CG Minimization
print                ==========================================
==========================================
print                .
.

dump                 1 all custom 25 ${sname}.min.lammpstrj id type xu yu zu vx vy vz
dump                 1 all custom 25 combined_mc.min.lammpstrj id type xu yu zu vx vy vz
thermo               10
min_style            sd
minimize             1.0e-4 1.0e-4 500 5000

CITE-CITE-CITE-CITE-CITE-CITE-CITE-CITE-CITE-CITE-CITE-CITE-CITE

Your simulation uses code contributions which should be cited:

- neighbor multi command: doi:10.1016/j.cpc.2008.03.005, doi:10.1007/s40571-020-00361-2

@Article{Intveld08,
 author =  {in 't Veld, P. J. and S. J.~Plimpton and G. S. Grest},
 title =   {Accurate and Efficient Methods for Modeling Colloidal
            Mixtures in an Explicit Solvent using Molecular Dynamics},
 journal = {Comput.\ Phys.\ Commut.},
 year =    2008,
 volume =  179,
 pages =   {320--329}
}

@article{Shire2020,
 author = {Shire, Tom and Hanley, Kevin J. and Stratford, Kevin},
 title = {{DEM} Simulations of Polydisperse Media: Efficient Contact
          Detection Applied to Investigate the Quasi-Static Limit},
 journal = {Computational Particle Mechanics},
 year = {2020}
}

CITE-CITE-CITE-CITE-CITE-CITE-CITE-CITE-CITE-CITE-CITE-CITE-CITE

Switching to 'neigh_modify every 1 delay 0 check yes' setting during minimization
PPPM initialization ...
WARNING: System is not charge neutral, net charge = -0.0006 (src/kspace.cpp:327)
  using 12-bit tables for long-range coulomb (src/kspace.cpp:342)
  G vector (1/distance) = 0.14809026
  grid = 3 3 3
  stencil order = 5
  estimated absolute RMS force accuracy = 0.031780157
  estimated relative force accuracy = 9.5704998e-05
  using double precision FFTW3
  3d grid and FFT values/proc = 343 8
Generated 28 of 28 mixed pair_coeff terms from geometric mixing rule
Neighbor list info ...
  update: every = 1 steps, delay = 0 steps, check = yes
  max neighbors/atom: 2000, page size: 100000
  master list distance cutoff = 12
  ghost atom cutoff = 12
  binsize = 6, bins = 4 4 4
  1 neighbor lists, perpetual/occasional/extra = 1 0 0
  (1) pair lj/charmm/coul/long/opt, perpetual
      attributes: half, newton on
      pair build: half/multi/newton
      stencil: half/multi/3d
      bin: multi
Per MPI rank memory allocation (min/avg/max) = 31.61 | 31.77 | 32.26 Mbytes
------------ Step              0 ----- CPU =            0 (sec) -------------
TotEng   =   47705.553349 KinEng   =       0.000000 Temp     =       0.000000 
PotEng   =   47705.553349 E_bond   =     110.088059 E_angle  =      36.601372 
E_dihed  =      19.805602 E_impro  =       3.329327 E_vdwl   =   47537.161164 
E_coul   =      24.750759 E_long   =     -26.182933 Press    = 1638392.078794
------------ Step             10 ----- CPU =  0.001827124 (sec) -------------
TotEng   =     572.362065 KinEng   =       0.000000 Temp     =       0.000000 
PotEng   =     572.362065 E_bond   =      28.348396 E_angle  =     174.113170 
E_dihed  =      21.860290 E_impro  =       1.027270 E_vdwl   =     348.930535 
E_coul   =      24.268195 E_long   =     -26.185792 Press    =   17811.137941
------------ Step             20 ----- CPU =  0.004338877 (sec) -------------
TotEng   =     358.280831 KinEng   =       0.000000 Temp     =       0.000000 
PotEng   =     358.280831 E_bond   =      26.550344 E_angle  =     147.206886 
E_dihed  =      24.122889 E_impro  =       0.510031 E_vdwl   =     161.989016 
E_coul   =      24.089037 E_long   =     -26.187372 Press    =    8804.701513
------------ Step             30 ----- CPU =  0.006982683 (sec) -------------
TotEng   =     301.339427 KinEng   =       0.000000 Temp     =       0.000000 
PotEng   =     301.339427 E_bond   =      26.388869 E_angle  =     132.737688 
E_dihed  =      25.376374 E_impro  =       0.425355 E_vdwl   =     118.521557 
E_coul   =      24.078028 E_long   =     -26.188442 Press    =    6360.214431
------------ Step             40 ----- CPU =   0.00974223 (sec) -------------
TotEng   =     265.371215 KinEng   =       0.000000 Temp     =       0.000000 
PotEng   =     265.371215 E_bond   =      28.444167 E_angle  =     125.079593 
E_dihed  =      26.758837 E_impro  =       0.405901 E_vdwl   =      86.890468 
E_coul   =      23.981799 E_long   =     -26.189548 Press    =    4392.177902
------------ Step             50 ----- CPU =   0.01258632 (sec) -------------
TotEng   =     234.498851 KinEng   =       0.000000 Temp     =       0.000000 
PotEng   =     234.498851 E_bond   =      33.479402 E_angle  =     123.927933 
E_dihed  =      28.932165 E_impro  =       0.394403 E_vdwl   =      50.093213 
E_coul   =      23.861808 E_long   =     -26.190073 Press    =    1877.124796
------------ Step             60 ----- CPU =   0.01514867 (sec) -------------
TotEng   =     230.737991 KinEng   =       0.000000 Temp     =       0.000000 
PotEng   =     230.737991 E_bond   =      34.145328 E_angle  =     124.460142 
E_dihed  =      29.283470 E_impro  =       0.398397 E_vdwl   =      44.807830 
E_coul   =      23.832733 E_long   =     -26.189908 Press    =    1489.517038
------------ Step             70 ----- CPU =   0.01770625 (sec) -------------
TotEng   =     229.294462 KinEng   =       0.000000 Temp     =       0.000000 
PotEng   =     229.294462 E_bond   =      34.371502 E_angle  =     124.698670 
E_dihed  =      29.429568 E_impro  =       0.402329 E_vdwl   =      42.737333 
E_coul   =      23.844872 E_long   =     -26.189812 Press    =    1335.814741
------------ Step             80 ----- CPU =   0.02032805 (sec) -------------
TotEng   =     228.085228 KinEng   =       0.000000 Temp     =       0.000000 
PotEng   =     228.085228 E_bond   =      34.545178 E_angle  =     124.912562 
E_dihed  =      29.556210 E_impro  =       0.406668 E_vdwl   =      41.030968 
E_coul   =      23.823350 E_long   =     -26.189708 Press    =    1206.471701
------------ Step             90 ----- CPU =   0.02286368 (sec) -------------
TotEng   =     226.705094 KinEng   =       0.000000 Temp     =       0.000000 
PotEng   =     226.705094 E_bond   =      34.746343 E_angle  =     125.190560 
E_dihed  =      29.717763 E_impro  =       0.413571 E_vdwl   =      39.000081 
E_coul   =      23.826316 E_long   =     -26.189541 Press    =    1049.826488
------------ Step            100 ----- CPU =   0.02546582 (sec) -------------
TotEng   =     222.574476 KinEng   =       0.000000 Temp     =       0.000000 
PotEng   =     222.574476 E_bond   =      34.927226 E_angle  =     125.878865 
E_dihed  =      30.340535 E_impro  =       0.474624 E_vdwl   =      33.302867 
E_coul   =      23.839364 E_long   =     -26.189006 Press    =     681.728756
------------ Step            110 ----- CPU =   0.02801463 (sec) -------------
TotEng   =     222.007433 KinEng   =       0.000000 Temp     =       0.000000 
PotEng   =     222.007433 E_bond   =      34.602897 E_angle  =     125.862496 
E_dihed  =      30.366013 E_impro  =       0.483316 E_vdwl   =      33.052046 
E_coul   =      23.829988 E_long   =     -26.189324 Press    =     630.694446
------------ Step            120 ----- CPU =   0.03058198 (sec) -------------
TotEng   =     221.455773 KinEng   =       0.000000 Temp     =       0.000000 
PotEng   =     221.455773 E_bond   =      34.512367 E_angle  =     125.836354 
E_dihed  =      30.438532 E_impro  =       0.496948 E_vdwl   =      32.542999 
E_coul   =      23.817768 E_long   =     -26.189196 Press    =     593.924368
------------ Step            130 ----- CPU =   0.03307557 (sec) -------------
TotEng   =     217.548088 KinEng   =       0.000000 Temp     =       0.000000 
PotEng   =     217.548088 E_bond   =      33.768941 E_angle  =     125.502549 
E_dihed  =      30.770262 E_impro  =       0.613982 E_vdwl   =      29.326268 
E_coul   =      23.753928 E_long   =     -26.187842 Press    =     384.656772
------------ Step            140 ----- CPU =   0.03566562 (sec) -------------
TotEng   =     217.254343 KinEng   =       0.000000 Temp     =       0.000000 
PotEng   =     217.254343 E_bond   =      33.719697 E_angle  =     125.447271 
E_dihed  =      30.756466 E_impro  =       0.618108 E_vdwl   =      29.156745 
E_coul   =      23.743604 E_long   =     -26.187547 Press    =     371.516849
------------ Step            150 ----- CPU =   0.03828797 (sec) -------------
TotEng   =     216.765947 KinEng   =       0.000000 Temp     =       0.000000 
PotEng   =     216.765947 E_bond   =      33.633852 E_angle  =     125.352098 
E_dihed  =      30.722001 E_impro  =       0.619984 E_vdwl   =      28.893151 
E_coul   =      23.731933 E_long   =     -26.187073 Press    =     354.326778
------------ Step            159 ----- CPU =   0.04068465 (sec) -------------
TotEng   =     213.976050 KinEng   =       0.000000 Temp     =       0.000000 
PotEng   =     213.976050 E_bond   =      33.084819 E_angle  =     124.607761 
E_dihed  =      30.500846 E_impro  =       0.599632 E_vdwl   =      27.677287 
E_coul   =      23.690992 E_long   =     -26.185286 Press    =     309.279170
Loop time of 0.0407107 on 8 procs for 159 steps with 122 atoms

99.2% CPU use with 8 MPI tasks x 1 OpenMP threads

Minimization stats:
  Stopping criterion = energy tolerance
  Energy initial, next-to-last, final = 
      47705.5533489325    213.99403636049   213.976050108751
  Force two-norm initial, final = 806464.24 8.5783122
  Force max component initial, final = 496010.83 3.5698468
  Final line search alpha, max atom move = 0.036697125 0.13100311
  Iterations, force evaluations = 159 308

MPI task timing breakdown:
Section |  min time  |  avg time  |  max time  |%varavg| %total
---------------------------------------------------------------
Pair    | 0.00047577 | 0.0037007  | 0.0073413  |   3.7 |  9.09
Bond    | 4.5378e-05 | 0.0013873  | 0.0031285  |   2.7 |  3.41
Kspace  | 0.015364   | 0.020531   | 0.025203   |   2.3 | 50.43
Neigh   | 0.00014294 | 0.000146   | 0.00014885 |   0.0 |  0.36
Comm    | 0.011482   | 0.011605   | 0.01173    |   0.1 | 28.50
Output  | 0.0007383  | 0.00076593 | 0.0008707  |   0.0 |  1.88
Modify  | 0          | 0          | 0          |   0.0 |  0.00
Other   |            | 0.002575   |            |       |  6.32

Nlocal:          15.25 ave          32 max           1 min
Histogram: 1 0 1 2 1 1 0 0 1 1
Nghost:        666.625 ave         713 max         643 min
Histogram: 2 2 0 1 1 1 0 0 0 1
Neighs:        780.125 ave        1689 max          55 min
Histogram: 1 1 1 0 3 0 0 0 1 1

Total # of neighbors = 6241
Ave neighs/atom = 51.155738
Ave special neighs/atom = 10.967213
Neighbor list builds = 1
Dangerous builds = 0
min_style            cg
minimize             1.0e-4 1.0e-4 500 5000
Switching to 'neigh_modify every 1 delay 0 check yes' setting during minimization
PPPM initialization ...
  using 12-bit tables for long-range coulomb (src/kspace.cpp:342)
  G vector (1/distance) = 0.14809026
  grid = 3 3 3
  stencil order = 5
  estimated absolute RMS force accuracy = 0.031780157
  estimated relative force accuracy = 9.5704998e-05
  using double precision FFTW3
  3d grid and FFT values/proc = 343 8
Generated 28 of 28 mixed pair_coeff terms from geometric mixing rule
Per MPI rank memory allocation (min/avg/max) = 31.61 | 31.77 | 32.26 Mbytes
------------ Step            159 ----- CPU =            0 (sec) -------------
TotEng   =     213.976050 KinEng   =       0.000000 Temp     =       0.000000 
PotEng   =     213.976050 E_bond   =      33.084819 E_angle  =     124.607761 
E_dihed  =      30.500846 E_impro  =       0.599632 E_vdwl   =      27.677287 
E_coul   =      23.690992 E_long   =     -26.185286 Press    =     309.279170
------------ Step            160 ----- CPU =  0.000470529 (sec) -------------
TotEng   =     213.958829 KinEng   =       0.000000 Temp     =       0.000000 
PotEng   =     213.958829 E_bond   =      33.068859 E_angle  =     124.628868 
E_dihed  =      30.495977 E_impro  =       0.597593 E_vdwl   =      27.661091 
E_coul   =      23.691659 E_long   =     -26.185218 Press    =     303.451474
Loop time of 0.000493643 on 8 procs for 1 steps with 122 atoms

98.6% CPU use with 8 MPI tasks x 1 OpenMP threads

Minimization stats:
  Stopping criterion = energy tolerance
  Energy initial, next-to-last, final = 
      213.976050108751   213.976050108751   213.958829241437
  Force two-norm initial, final = 8.5783122 7.3624042
  Force max component initial, final = 3.5698468 2.5498569
  Final line search alpha, max atom move = 0.028012407 0.071427629
  Iterations, force evaluations = 1 2

MPI task timing breakdown:
Section |  min time  |  avg time  |  max time  |%varavg| %total
---------------------------------------------------------------
Pair    | 1.3165e-05 | 4.4227e-05 | 8.2679e-05 |   0.0 |  8.96
Bond    | 6.21e-07   | 1.5239e-05 | 3.3554e-05 |   0.0 |  3.09
Kspace  | 0.00015309 | 0.00020603 | 0.00025198 |   0.0 | 41.74
Neigh   | 0          | 0          | 0          |   0.0 |  0.00
Comm    | 0.00011042 | 0.00011257 | 0.00011479 |   0.0 | 22.80
Output  | 0          | 0          | 0          |   0.0 |  0.00
Modify  | 0          | 0          | 0          |   0.0 |  0.00
Other   |            | 0.0001156  |            |       | 23.41

Nlocal:          15.25 ave          31 max           2 min
Histogram: 1 0 1 2 1 1 0 0 1 1
Nghost:        663.125 ave         707 max         642 min
Histogram: 2 2 0 1 2 0 0 0 0 1
Neighs:         783.75 ave        1643 max         126 min
Histogram: 1 1 1 1 2 0 0 0 1 1

Total # of neighbors = 6270
Ave neighs/atom = 51.393443
Ave special neighs/atom = 10.967213
Neighbor list builds = 0
Dangerous builds = 0
#now                 minimize the entire system
minimize             1.0e-4 1.0e-4 500 5000
Switching to 'neigh_modify every 1 delay 0 check yes' setting during minimization
PPPM initialization ...
  using 12-bit tables for long-range coulomb (src/kspace.cpp:342)
  G vector (1/distance) = 0.14809026
  grid = 3 3 3
  stencil order = 5
  estimated absolute RMS force accuracy = 0.031780157
  estimated relative force accuracy = 9.5704998e-05
  using double precision FFTW3
  3d grid and FFT values/proc = 343 8
Generated 28 of 28 mixed pair_coeff terms from geometric mixing rule
Per MPI rank memory allocation (min/avg/max) = 31.61 | 31.77 | 32.26 Mbytes
------------ Step            160 ----- CPU =            0 (sec) -------------
TotEng   =     213.958829 KinEng   =       0.000000 Temp     =       0.000000 
PotEng   =     213.958829 E_bond   =      33.068859 E_angle  =     124.628868 
E_dihed  =      30.495977 E_impro  =       0.597593 E_vdwl   =      27.661091 
E_coul   =      23.691659 E_long   =     -26.185218 Press    =     303.451474
------------ Step            161 ----- CPU =  0.000458977 (sec) -------------
TotEng   =     213.941669 KinEng   =       0.000000 Temp     =       0.000000 
PotEng   =     213.941669 E_bond   =      33.074632 E_angle  =     124.603146 
E_dihed  =      30.497685 E_impro  =       0.599900 E_vdwl   =      27.660952 
E_coul   =      23.690592 E_long   =     -26.185239 Press    =     308.089671
Loop time of 0.000482448 on 8 procs for 1 steps with 122 atoms

100.0% CPU use with 8 MPI tasks x 1 OpenMP threads

Minimization stats:
  Stopping criterion = energy tolerance
  Energy initial, next-to-last, final = 
      213.958829241437   213.958829241437   213.941668600664
  Force two-norm initial, final = 7.3624042 8.6996563
  Force max component initial, final = 2.5498569 3.692486
  Final line search alpha, max atom move = 0.039217887 0.1448115
  Iterations, force evaluations = 1 2

MPI task timing breakdown:
Section |  min time  |  avg time  |  max time  |%varavg| %total
---------------------------------------------------------------
Pair    | 9.509e-06  | 3.9948e-05 | 7.7387e-05 |   0.0 |  8.28
Bond    | 7e-07      | 1.4379e-05 | 3.134e-05  |   0.0 |  2.98
Kspace  | 0.00014591 | 0.00019762 | 0.00024135 |   0.0 | 40.96
Neigh   | 0          | 0          | 0          |   0.0 |  0.00
Comm    | 0.00011264 | 0.00011353 | 0.00011477 |   0.0 | 23.53
Output  | 0          | 0          | 0          |   0.0 |  0.00
Modify  | 0          | 0          | 0          |   0.0 |  0.00
Other   |            | 0.000117   |            |       | 24.25

Nlocal:          15.25 ave          31 max           2 min
Histogram: 1 0 1 2 1 1 0 0 1 1
Nghost:        663.125 ave         707 max         642 min
Histogram: 2 2 0 1 2 0 0 0 0 1
Neighs:        783.625 ave        1643 max         126 min
Histogram: 1 1 1 1 2 0 0 0 1 1

Total # of neighbors = 6269
Ave neighs/atom = 51.385246
Ave special neighs/atom = 10.967213
Neighbor list builds = 0
Dangerous builds = 0
undump               1

print                .
.
print                =====================================
=====================================
print                "NVT dynamics to heat system"
NVT dynamics to heat system
print                =====================================
=====================================
print                .
.

reset_timestep       0
##fix                  shakeH all shake 0.0001 20 500 m 1.0079
velocity             all create 0.0 12345678 dist uniform
thermo               100
dump                 1 all custom 1000 ${sname}.heat.lammpstrj id type xu yu zu vx vy vz
dump                 1 all custom 1000 combined_mc.heat.lammpstrj id type xu yu zu vx vy vz
fix                  4 all nvt temp 1.0 300.0 100.0
run                  10000
PPPM initialization ...
  using 12-bit tables for long-range coulomb (src/kspace.cpp:342)
  G vector (1/distance) = 0.14809026
  grid = 3 3 3
  stencil order = 5
  estimated absolute RMS force accuracy = 0.031780157
  estimated relative force accuracy = 9.5704998e-05
  using double precision FFTW3
  3d grid and FFT values/proc = 343 8
Generated 28 of 28 mixed pair_coeff terms from geometric mixing rule
Per MPI rank memory allocation (min/avg/max) = 30.48 | 30.65 | 31.13 Mbytes
------------ Step              0 ----- CPU =            0 (sec) -------------
TotEng   =     213.941669 KinEng   =       0.000000 Temp     =       0.000000 
PotEng   =     213.941669 E_bond   =      33.074632 E_angle  =     124.603146 
E_dihed  =      30.497685 E_impro  =       0.599900 E_vdwl   =      27.660952 
E_coul   =      23.690592 E_long   =     -26.185239 Press    =     308.089671
------------ Step            100 ----- CPU =   0.01123235 (sec) -------------
TotEng   =     214.049272 KinEng   =       1.692550 Temp     =       4.692689 
PotEng   =     212.356722 E_bond   =      32.927665 E_angle  =     124.049002 
E_dihed  =      30.131444 E_impro  =       0.531078 E_vdwl   =      27.250242 
E_coul   =      23.649378 E_long   =     -26.182086 Press    =     260.695117
------------ Step            200 ----- CPU =   0.02224569 (sec) -------------
TotEng   =     214.023270 KinEng   =       3.770752 Temp     =      10.454620 
PotEng   =     210.252518 E_bond   =      32.082176 E_angle  =     123.361370 
E_dihed  =      29.738680 E_impro  =       0.428884 E_vdwl   =      27.217654 
E_coul   =      23.598995 E_long   =     -26.175241 Press    =     200.781186
------------ Step            300 ----- CPU =   0.03343115 (sec) -------------
TotEng   =     213.273938 KinEng   =       4.553916 Temp     =      12.625987 
PotEng   =     208.720022 E_bond   =      31.595342 E_angle  =     123.849645 
E_dihed  =      29.305167 E_impro  =       0.496011 E_vdwl   =      26.199926 
E_coul   =      23.441125 E_long   =     -26.167195 Press    =       7.150273
------------ Step            400 ----- CPU =   0.04438608 (sec) -------------
TotEng   =     212.662788 KinEng   =       5.349585 Temp     =      14.832024 
PotEng   =     207.313203 E_bond   =      32.097338 E_angle  =     125.346246 
E_dihed  =      28.138671 E_impro  =       0.553597 E_vdwl   =      23.803472 
E_coul   =      23.537707 E_long   =     -26.163829 Press    =    -235.547792
------------ Step            500 ----- CPU =   0.05530284 (sec) -------------
TotEng   =     212.001551 KinEng   =       6.083827 Temp     =      16.867751 
PotEng   =     205.917724 E_bond   =      32.007250 E_angle  =     126.191500 
E_dihed  =      26.863071 E_impro  =       0.655125 E_vdwl   =      22.792406 
E_coul   =      23.568666 E_long   =     -26.160295 Press    =    -313.734546
------------ Step            600 ----- CPU =   0.06652385 (sec) -------------
TotEng   =     211.294406 KinEng   =       6.426256 Temp     =      17.817155 
PotEng   =     204.868150 E_bond   =      30.891181 E_angle  =     126.728144 
E_dihed  =      26.044414 E_impro  =       0.508422 E_vdwl   =      23.405846 
E_coul   =      23.451443 E_long   =     -26.161302 Press    =    -167.022665
------------ Step            700 ----- CPU =   0.07737753 (sec) -------------
TotEng   =     210.979129 KinEng   =       5.881307 Temp     =      16.306253 
PotEng   =     205.097822 E_bond   =      30.075145 E_angle  =     127.912145 
E_dihed  =      26.009884 E_impro  =       0.467928 E_vdwl   =      23.422835 
E_coul   =      23.370821 E_long   =     -26.160937 Press    =     -39.334159
------------ Step            800 ----- CPU =   0.08857863 (sec) -------------
TotEng   =     211.491083 KinEng   =       5.767928 Temp     =      15.991904 
PotEng   =     205.723155 E_bond   =      30.310015 E_angle  =     128.542838 
E_dihed  =      27.018150 E_impro  =       0.529897 E_vdwl   =      22.045043 
E_coul   =      23.436199 E_long   =     -26.158987 Press    =     -55.376810
------------ Step            900 ----- CPU =   0.09971684 (sec) -------------
TotEng   =     212.593788 KinEng   =       7.100678 Temp     =      19.687026 
PotEng   =     205.493111 E_bond   =      30.494655 E_angle  =     128.484066 
E_dihed  =      27.988835 E_impro  =       0.627029 E_vdwl   =      20.662497 
E_coul   =      23.393429 E_long   =     -26.157401 Press    =    -127.396559
------------ Step           1000 ----- CPU =    0.1109432 (sec) -------------
TotEng   =     213.963481 KinEng   =       9.677676 Temp     =      26.831900 
PotEng   =     204.285804 E_bond   =      30.551389 E_angle  =     128.251212 
E_dihed  =      26.423101 E_impro  =       0.602461 E_vdwl   =      21.244780 
E_coul   =      23.367382 E_long   =     -26.154520 Press    =    -170.736252
------------ Step           1100 ----- CPU =     0.122098 (sec) -------------
TotEng   =     215.164965 KinEng   =       8.320735 Temp     =      23.069705 
PotEng   =     206.844230 E_bond   =      30.503734 E_angle  =     129.394934 
E_dihed  =      26.924479 E_impro  =       0.696847 E_vdwl   =      22.230899 
E_coul   =      23.252469 E_long   =     -26.159131 Press    =    -188.028762
------------ Step           1200 ----- CPU =    0.1332579 (sec) -------------
TotEng   =     216.777598 KinEng   =       8.888542 Temp     =      24.643979 
PotEng   =     207.889057 E_bond   =      29.979503 E_angle  =     128.617021 
E_dihed  =      28.891721 E_impro  =       0.780999 E_vdwl   =      22.387268 
E_coul   =      23.401167 E_long   =     -26.168621 Press    =    -167.438585
------------ Step           1300 ----- CPU =    0.1444482 (sec) -------------
TotEng   =     218.567009 KinEng   =       9.863499 Temp     =      27.347104 
PotEng   =     208.703510 E_bond   =      30.539564 E_angle  =     130.038883 
E_dihed  =      29.481857 E_impro  =       0.715625 E_vdwl   =      20.601217 
E_coul   =      23.499720 E_long   =     -26.173357 Press    =    -125.856214
------------ Step           1400 ----- CPU =    0.1557597 (sec) -------------
TotEng   =     220.712723 KinEng   =      13.304127 Temp     =      36.886436 
PotEng   =     207.408596 E_bond   =      31.208727 E_angle  =     129.302208 
E_dihed  =      27.612078 E_impro  =       0.579533 E_vdwl   =      21.282448 
E_coul   =      23.601292 E_long   =     -26.177690 Press    =    -108.698737
------------ Step           1500 ----- CPU =    0.1669198 (sec) -------------
TotEng   =     222.789611 KinEng   =      14.079519 Temp     =      39.036254 
PotEng   =     208.710093 E_bond   =      29.958604 E_angle  =     129.795247 
E_dihed  =      27.883707 E_impro  =       0.400752 E_vdwl   =      23.398119 
E_coul   =      23.451733 E_long   =     -26.178069 Press    =      97.189932
------------ Step           1600 ----- CPU =    0.1779511 (sec) -------------
TotEng   =     225.120919 KinEng   =      15.549352 Temp     =      43.111450 
PotEng   =     209.571567 E_bond   =      29.095326 E_angle  =     131.568206 
E_dihed  =      28.872533 E_impro  =       0.468425 E_vdwl   =      22.245272 
E_coul   =      23.502721 E_long   =     -26.180916 Press    =     118.432264
------------ Step           1700 ----- CPU =    0.1893441 (sec) -------------
TotEng   =     227.618391 KinEng   =      17.269299 Temp     =      47.880098 
PotEng   =     210.349092 E_bond   =      30.626701 E_angle  =     131.536831 
E_dihed  =      29.046845 E_impro  =       0.592730 E_vdwl   =      21.127479 
E_coul   =      23.607319 E_long   =     -26.188813 Press    =     -65.120908
------------ Step           1800 ----- CPU =    0.2008618 (sec) -------------
TotEng   =     229.975164 KinEng   =      19.008933 Temp     =      52.703332 
PotEng   =     210.966230 E_bond   =      32.233446 E_angle  =     131.118853 
E_dihed  =      29.363411 E_impro  =       0.512709 E_vdwl   =      20.404674 
E_coul   =      23.521656 E_long   =     -26.188519 Press    =    -279.806611
------------ Step           1900 ----- CPU =    0.2122213 (sec) -------------
TotEng   =     232.310416 KinEng   =      19.422921 Temp     =      53.851135 
PotEng   =     212.887496 E_bond   =      32.318135 E_angle  =     131.650919 
E_dihed  =      30.146928 E_impro  =       0.561275 E_vdwl   =      20.918448 
E_coul   =      23.485930 E_long   =     -26.194138 Press    =    -421.418097
------------ Step           2000 ----- CPU =     0.224232 (sec) -------------
TotEng   =     234.712315 KinEng   =      23.202040 Temp     =      64.328957 
PotEng   =     211.510274 E_bond   =      30.671933 E_angle  =     132.308150 
E_dihed  =      27.250409 E_impro  =       0.738445 E_vdwl   =      23.215740 
E_coul   =      23.533221 E_long   =     -26.207623 Press    =     -92.074134
------------ Step           2100 ----- CPU =    0.2360845 (sec) -------------
TotEng   =     236.507126 KinEng   =      22.801308 Temp     =      63.217903 
PotEng   =     213.705818 E_bond   =      31.087547 E_angle  =     139.508512 
E_dihed  =      23.695257 E_impro  =       0.655977 E_vdwl   =      21.431171 
E_coul   =      23.548617 E_long   =     -26.221264 Press    =     184.842330
------------ Step           2200 ----- CPU =    0.2480023 (sec) -------------
TotEng   =     238.189799 KinEng   =      21.137865 Temp     =      58.605914 
PotEng   =     217.051935 E_bond   =      32.786168 E_angle  =     145.476721 
E_dihed  =      23.021866 E_impro  =       0.739382 E_vdwl   =      17.649760 
E_coul   =      23.598674 E_long   =     -26.220636 Press    =     292.158417
------------ Step           2300 ----- CPU =    0.2596577 (sec) -------------
TotEng   =     240.753705 KinEng   =      23.549808 Temp     =      65.293161 
PotEng   =     217.203897 E_bond   =      30.322848 E_angle  =     146.179947 
E_dihed  =      24.335195 E_impro  =       0.670979 E_vdwl   =      18.359025 
E_coul   =      23.552501 E_long   =     -26.216598 Press    =     525.049020
------------ Step           2400 ----- CPU =    0.2714659 (sec) -------------
TotEng   =     243.422729 KinEng   =      28.964388 Temp     =      80.305389 
PotEng   =     214.458341 E_bond   =      27.221464 E_angle  =     142.309519 
E_dihed  =      26.915174 E_impro  =       0.734884 E_vdwl   =      19.982412 
E_coul   =      23.509236 E_long   =     -26.214348 Press    =     503.700205
------------ Step           2500 ----- CPU =    0.2832826 (sec) -------------
TotEng   =     244.765550 KinEng   =      27.391589 Temp     =      75.944714 
PotEng   =     217.373961 E_bond   =      27.298849 E_angle  =     144.090218 
E_dihed  =      28.040512 E_impro  =       0.795210 E_vdwl   =      20.016999 
E_coul   =      23.347107 E_long   =     -26.214934 Press    =     298.000154
------------ Step           2600 ----- CPU =    0.2950825 (sec) -------------
TotEng   =     245.945077 KinEng   =      26.704932 Temp     =      74.040918 
PotEng   =     219.240145 E_bond   =      31.864950 E_angle  =     144.868011 
E_dihed  =      30.910392 E_impro  =       0.780678 E_vdwl   =      13.575477 
E_coul   =      23.456349 E_long   =     -26.215711 Press    =    -523.133030
------------ Step           2700 ----- CPU =    0.3068266 (sec) -------------
TotEng   =     247.699140 KinEng   =      29.108996 Temp     =      80.706321 
PotEng   =     218.590144 E_bond   =      33.793870 E_angle  =     141.418440 
E_dihed  =      31.470883 E_impro  =       0.637183 E_vdwl   =      14.347074 
E_coul   =      23.132433 E_long   =     -26.209738 Press    =    -422.338423
------------ Step           2800 ----- CPU =    0.3186734 (sec) -------------
TotEng   =     249.660260 KinEng   =      37.395990 Temp     =     103.682476 
PotEng   =     212.264270 E_bond   =      30.293542 E_angle  =     132.215181 
E_dihed  =      28.956439 E_impro  =       0.517954 E_vdwl   =      23.250255 
E_coul   =      23.248500 E_long   =     -26.217601 Press    =     319.750562
------------ Step           2900 ----- CPU =    0.3303059 (sec) -------------
TotEng   =     248.269944 KinEng   =      36.349293 Temp     =     100.780451 
PotEng   =     211.920651 E_bond   =      29.005412 E_angle  =     133.385767 
E_dihed  =      28.661577 E_impro  =       0.495453 E_vdwl   =      23.184830 
E_coul   =      23.409583 E_long   =     -26.221971 Press    =     366.699609
------------ Step           3000 ----- CPU =    0.3420469 (sec) -------------
TotEng   =     244.694543 KinEng   =      33.402297 Temp     =      92.609739 
PotEng   =     211.292246 E_bond   =      31.921530 E_angle  =     138.222977 
E_dihed  =      30.719824 E_impro  =       0.559585 E_vdwl   =      12.686725 
E_coul   =      23.400170 E_long   =     -26.218565 Press    =    -370.073417
------------ Step           3100 ----- CPU =    0.3534908 (sec) -------------
TotEng   =     242.107343 KinEng   =      31.578222 Temp     =      87.552389 
PotEng   =     210.529121 E_bond   =      31.867185 E_angle  =     138.612833 
E_dihed  =      31.675325 E_impro  =       0.785730 E_vdwl   =      10.346100 
E_coul   =      23.452385 E_long   =     -26.210437 Press    =    -617.054794
------------ Step           3200 ----- CPU =    0.3649454 (sec) -------------
TotEng   =     240.896613 KinEng   =      30.084499 Temp     =      83.410959 
PotEng   =     210.812113 E_bond   =      27.674168 E_angle  =     135.143491 
E_dihed  =      33.332033 E_impro  =       0.670490 E_vdwl   =      17.083449 
E_coul   =      23.111139 E_long   =     -26.202658 Press    =     -10.622968
------------ Step           3300 ----- CPU =    0.3761667 (sec) -------------
TotEng   =     241.633364 KinEng   =      33.945061 Temp     =      94.114583 
PotEng   =     207.688303 E_bond   =      27.209081 E_angle  =     134.860784 
E_dihed  =      31.559205 E_impro  =       0.870594 E_vdwl   =      16.157522 
E_coul   =      23.228631 E_long   =     -26.197515 Press    =    -103.655621
------------ Step           3400 ----- CPU =    0.3877266 (sec) -------------
TotEng   =     243.760212 KinEng   =      37.985811 Temp     =     105.317790 
PotEng   =     205.774401 E_bond   =      29.535767 E_angle  =     137.821362 
E_dihed  =      31.320358 E_impro  =       0.868754 E_vdwl   =       9.211776 
E_coul   =      23.203440 E_long   =     -26.187056 Press    =     -23.787558
------------ Step           3500 ----- CPU =    0.3992166 (sec) -------------
TotEng   =     245.518746 KinEng   =      45.607388 Temp     =     126.449037 
PotEng   =     199.911358 E_bond   =      30.073327 E_angle  =     137.703323 
E_dihed  =      29.779345 E_impro  =       0.511091 E_vdwl   =       4.740735 
E_coul   =      23.292901 E_long   =     -26.189363 Press    =     -40.327531
------------ Step           3600 ----- CPU =    0.4106834 (sec) -------------
TotEng   =     242.784603 KinEng   =      50.861669 Temp     =     141.016825 
PotEng   =     191.922934 E_bond   =      23.498485 E_angle  =     135.273290 
E_dihed  =      30.424138 E_impro  =       0.523715 E_vdwl   =       5.167373 
E_coul   =      23.220649 E_long   =     -26.184716 Press    =     771.241399
------------ Step           3700 ----- CPU =    0.4220063 (sec) -------------
TotEng   =     236.507850 KinEng   =      41.148674 Temp     =     114.087004 
PotEng   =     195.359176 E_bond   =      21.076631 E_angle  =     141.874905 
E_dihed  =      33.136353 E_impro  =       0.416989 E_vdwl   =       1.548827 
E_coul   =      23.487191 E_long   =     -26.181720 Press    =     297.239167
------------ Step           3800 ----- CPU =    0.4336299 (sec) -------------
TotEng   =     234.677548 KinEng   =      33.815183 Temp     =      93.754489 
PotEng   =     200.862365 E_bond   =      22.986148 E_angle  =     149.043424 
E_dihed  =      35.296837 E_impro  =       1.077735 E_vdwl   =      -5.058124 
E_coul   =      23.688856 E_long   =     -26.172512 Press    =    -232.149026
------------ Step           3900 ----- CPU =    0.4453122 (sec) -------------
TotEng   =     236.097013 KinEng   =      44.689660 Temp     =     123.904584 
PotEng   =     191.407353 E_bond   =      23.890640 E_angle  =     142.166548 
E_dihed  =      36.900855 E_impro  =       1.177720 E_vdwl   =     -10.384505 
E_coul   =      23.813621 E_long   =     -26.157526 Press    =    -345.451692
------------ Step           4000 ----- CPU =    0.4570809 (sec) -------------
TotEng   =     236.177604 KinEng   =      56.610993 Temp     =     156.957149 
PotEng   =     179.566611 E_bond   =      21.095773 E_angle  =     137.239845 
E_dihed  =      35.236081 E_impro  =       0.996969 E_vdwl   =     -12.853541 
E_coul   =      24.003603 E_long   =     -26.152119 Press    =    -306.786437
------------ Step           4100 ----- CPU =    0.4686394 (sec) -------------
TotEng   =     230.012798 KinEng   =      49.446401 Temp     =     137.092916 
PotEng   =     180.566398 E_bond   =      17.895152 E_angle  =     135.252205 
E_dihed  =      38.097580 E_impro  =       1.354784 E_vdwl   =      -9.445134 
E_coul   =      23.571035 E_long   =     -26.159224 Press    =     536.182457
------------ Step           4200 ----- CPU =    0.4801614 (sec) -------------
TotEng   =     225.089941 KinEng   =      46.680448 Temp     =     129.424158 
PotEng   =     178.409493 E_bond   =      19.953131 E_angle  =     134.736914 
E_dihed  =      40.151558 E_impro  =       1.142415 E_vdwl   =     -14.675940 
E_coul   =      23.264571 E_long   =     -26.163156 Press    =     227.141028
------------ Step           4300 ----- CPU =    0.4916786 (sec) -------------
TotEng   =     222.320384 KinEng   =      43.915719 Temp     =     121.758790 
PotEng   =     178.404665 E_bond   =      19.774679 E_angle  =     135.521484 
E_dihed  =      40.953309 E_impro  =       0.728649 E_vdwl   =     -15.663122 
E_coul   =      23.257626 E_long   =     -26.167961 Press    =       9.806287
------------ Step           4400 ----- CPU =    0.5027963 (sec) -------------
TotEng   =     221.427164 KinEng   =      41.720724 Temp     =     115.673044 
PotEng   =     179.706440 E_bond   =      21.019717 E_angle  =     140.793302 
E_dihed  =      36.562364 E_impro  =       0.701071 E_vdwl   =     -16.379233 
E_coul   =      23.189905 E_long   =     -26.180685 Press    =    -111.888492
------------ Step           4500 ----- CPU =    0.5140821 (sec) -------------
TotEng   =     223.169753 KinEng   =      38.880972 Temp     =     107.799672 
PotEng   =     184.288781 E_bond   =      20.812567 E_angle  =     145.484457 
E_dihed  =      37.399280 E_impro  =       0.226693 E_vdwl   =     -16.643151 
E_coul   =      23.199203 E_long   =     -26.190268 Press    =     -21.038607
------------ Step           4600 ----- CPU =    0.5253531 (sec) -------------
TotEng   =     228.312998 KinEng   =      51.017056 Temp     =     141.447644 
PotEng   =     177.295943 E_bond   =      16.961132 E_angle  =     139.868392 
E_dihed  =      38.728399 E_impro  =       0.822000 E_vdwl   =     -16.086818 
E_coul   =      23.199455 E_long   =     -26.196618 Press    =     316.039067
------------ Step           4700 ----- CPU =    0.5368986 (sec) -------------
TotEng   =     231.676968 KinEng   =      52.931750 Temp     =     146.756242 
PotEng   =     178.745218 E_bond   =      19.499037 E_angle  =     139.933977 
E_dihed  =      36.422052 E_impro  =       1.016438 E_vdwl   =     -15.334693 
E_coul   =      23.401139 E_long   =     -26.192731 Press    =     283.148186
------------ Step           4800 ----- CPU =     0.548447 (sec) -------------
TotEng   =     232.759994 KinEng   =      52.198385 Temp     =     144.722945 
PotEng   =     180.561610 E_bond   =      23.443530 E_angle  =     132.821422 
E_dihed  =      30.213506 E_impro  =       0.827387 E_vdwl   =      -4.168048 
E_coul   =      23.614971 E_long   =     -26.191159 Press    =     102.460868
------------ Step           4900 ----- CPU =    0.5598515 (sec) -------------
TotEng   =     233.990115 KinEng   =      50.650355 Temp     =     140.430945 
PotEng   =     183.339761 E_bond   =      21.697464 E_angle  =     141.124918 
E_dihed  =      32.450936 E_impro  =       1.105906 E_vdwl   =     -10.306932 
E_coul   =      23.447514 E_long   =     -26.180044 Press    =    -178.952666
------------ Step           5000 ----- CPU =    0.5709769 (sec) -------------
TotEng   =     236.717139 KinEng   =      50.637324 Temp     =     140.394816 
PotEng   =     186.079815 E_bond   =      22.603897 E_angle  =     146.351342 
E_dihed  =      37.895344 E_impro  =       0.836618 E_vdwl   =     -18.767498 
E_coul   =      23.342159 E_long   =     -26.182048 Press    =   -1117.153173
------------ Step           5100 ----- CPU =    0.5817476 (sec) -------------
TotEng   =     240.808930 KinEng   =      52.076459 Temp     =     144.384901 
PotEng   =     188.732470 E_bond   =      14.505847 E_angle  =     155.135026 
E_dihed  =      41.137695 E_impro  =       1.290090 E_vdwl   =     -20.226148 
E_coul   =      23.072524 E_long   =     -26.182563 Press    =     -51.747220
------------ Step           5200 ----- CPU =    0.5927419 (sec) -------------
TotEng   =     245.230976 KinEng   =      56.253570 Temp     =     155.966172 
PotEng   =     188.977406 E_bond   =      15.992038 E_angle  =     155.962388 
E_dihed  =      42.394770 E_impro  =       0.636434 E_vdwl   =     -22.536522 
E_coul   =      22.718054 E_long   =     -26.189755 Press    =     589.586056
------------ Step           5300 ----- CPU =    0.6036318 (sec) -------------
TotEng   =     248.285852 KinEng   =      59.326826 Temp     =     164.486948 
PotEng   =     188.959026 E_bond   =      23.053030 E_angle  =     148.208596 
E_dihed  =      41.473281 E_impro  =       1.168141 E_vdwl   =     -21.683666 
E_coul   =      22.929894 E_long   =     -26.190250 Press    =    -502.711389
------------ Step           5400 ----- CPU =    0.6145921 (sec) -------------
TotEng   =     249.387822 KinEng   =      62.221481 Temp     =     172.512540 
PotEng   =     187.166341 E_bond   =      18.393509 E_angle  =     153.699837 
E_dihed  =      38.236810 E_impro  =       0.741839 E_vdwl   =     -20.453092 
E_coul   =      22.747057 E_long   =     -26.199619 Press    =     282.269370
------------ Step           5500 ----- CPU =    0.6256322 (sec) -------------
TotEng   =     247.540261 KinEng   =      69.460207 Temp     =     192.582314 
PotEng   =     178.080055 E_bond   =      16.417289 E_angle  =     146.527216 
E_dihed  =      34.920460 E_impro  =       1.890387 E_vdwl   =     -18.324294 
E_coul   =      22.855341 E_long   =     -26.206344 Press    =     310.505397
------------ Step           5600 ----- CPU =    0.6365424 (sec) -------------
TotEng   =     241.324828 KinEng   =      63.069210 Temp     =     174.862916 
PotEng   =     178.255618 E_bond   =      14.755097 E_angle  =     160.437892 
E_dihed  =      33.021926 E_impro  =       1.423687 E_vdwl   =     -28.047606 
E_coul   =      22.879859 E_long   =     -26.215237 Press    =     379.320213
------------ Step           5700 ----- CPU =    0.6476705 (sec) -------------
TotEng   =     237.120110 KinEng   =      57.239835 Temp     =     158.700650 
PotEng   =     179.880275 E_bond   =      17.483978 E_angle  =     157.412551 
E_dihed  =      36.601661 E_impro  =       1.267458 E_vdwl   =     -29.733031 
E_coul   =      23.064685 E_long   =     -26.217027 Press    =    -657.869332
------------ Step           5800 ----- CPU =    0.6586648 (sec) -------------
TotEng   =     237.234097 KinEng   =      56.453358 Temp     =     156.520096 
PotEng   =     180.780739 E_bond   =      16.930051 E_angle  =     153.799517 
E_dihed  =      40.850101 E_impro  =       1.807974 E_vdwl   =     -29.360462 
E_coul   =      22.967873 E_long   =     -26.214315 Press    =    -268.133991
------------ Step           5900 ----- CPU =    0.6694943 (sec) -------------
TotEng   =     239.823061 KinEng   =      62.487569 Temp     =     173.250284 
PotEng   =     177.335492 E_bond   =      14.263034 E_angle  =     154.898968 
E_dihed  =      34.557839 E_impro  =       1.481940 E_vdwl   =     -24.376243 
E_coul   =      22.722861 E_long   =     -26.212906 Press    =     622.127533
------------ Step           6000 ----- CPU =    0.6804864 (sec) -------------
TotEng   =     243.448172 KinEng   =      60.781794 Temp     =     168.520929 
PotEng   =     182.666378 E_bond   =      16.080271 E_angle  =     163.031721 
E_dihed  =      37.344264 E_impro  =       0.890455 E_vdwl   =     -31.188050 
E_coul   =      22.716851 E_long   =     -26.209136 Press    =    -287.109310
------------ Step           6100 ----- CPU =    0.6913409 (sec) -------------
TotEng   =     248.111952 KinEng   =      65.287217 Temp     =     181.012466 
PotEng   =     182.824735 E_bond   =      15.123221 E_angle  =     165.579562 
E_dihed  =      40.448305 E_impro  =       0.737188 E_vdwl   =     -35.687498 
E_coul   =      22.826885 E_long   =     -26.202929 Press    =    -249.816066
------------ Step           6200 ----- CPU =    0.7024042 (sec) -------------
TotEng   =     251.626972 KinEng   =      66.402449 Temp     =     184.104510 
PotEng   =     185.224523 E_bond   =      17.131888 E_angle  =     166.474129 
E_dihed  =      36.877380 E_impro  =       0.811158 E_vdwl   =     -32.881704 
E_coul   =      23.031867 E_long   =     -26.220196 Press    =    -269.083697
------------ Step           6300 ----- CPU =    0.7131044 (sec) -------------
TotEng   =     253.296445 KinEng   =      81.114910 Temp     =     224.895630 
PotEng   =     172.181536 E_bond   =      18.550455 E_angle  =     150.493942 
E_dihed  =      36.384453 E_impro  =       0.881538 E_vdwl   =     -30.596399 
E_coul   =      22.679669 E_long   =     -26.212121 Press    =     202.330915
------------ Step           6400 ----- CPU =    0.7240463 (sec) -------------
TotEng   =     251.202235 KinEng   =      70.811914 Temp     =     196.329999 
PotEng   =     180.390321 E_bond   =      14.139941 E_angle  =     152.064558 
E_dihed  =      40.252353 E_impro  =       1.010123 E_vdwl   =     -23.806305 
E_coul   =      22.946511 E_long   =     -26.216860 Press    =    1123.487345
------------ Step           6500 ----- CPU =    0.7350186 (sec) -------------
TotEng   =     247.745853 KinEng   =      74.285768 Temp     =     205.961451 
PotEng   =     173.460086 E_bond   =      15.900434 E_angle  =     167.499518 
E_dihed  =      39.308603 E_impro  =       1.051541 E_vdwl   =     -47.217608 
E_coul   =      23.135232 E_long   =     -26.217634 Press    =    -639.668656
------------ Step           6600 ----- CPU =    0.7457301 (sec) -------------
TotEng   =     242.650898 KinEng   =      72.943161 Temp     =     202.239000 
PotEng   =     169.707737 E_bond   =      13.858359 E_angle  =     150.396630 
E_dihed  =      39.876841 E_impro  =       0.769430 E_vdwl   =     -31.980999 
E_coul   =      23.000005 E_long   =     -26.212529 Press    =     420.250010
------------ Step           6700 ----- CPU =     0.757157 (sec) -------------
TotEng   =     238.915070 KinEng   =      73.778806 Temp     =     204.555871 
PotEng   =     165.136264 E_bond   =      18.353934 E_angle  =     142.422281 
E_dihed  =      37.550185 E_impro  =       0.619028 E_vdwl   =     -31.015426 
E_coul   =      23.401563 E_long   =     -26.195301 Press    =     118.175293
------------ Step           6800 ----- CPU =    0.7681292 (sec) -------------
TotEng   =     236.926828 KinEng   =      77.562496 Temp     =     215.046363 
PotEng   =     159.364332 E_bond   =      16.001161 E_angle  =     139.445358 
E_dihed  =      32.844782 E_impro  =       1.037335 E_vdwl   =     -27.321805 
E_coul   =      23.546635 E_long   =     -26.189134 Press    =     142.526225
------------ Step           6900 ----- CPU =    0.7790346 (sec) -------------
TotEng   =     233.399084 KinEng   =      77.189948 Temp     =     214.013454 
PotEng   =     156.209136 E_bond   =      17.272806 E_angle  =     145.162744 
E_dihed  =      34.202560 E_impro  =       0.590532 E_vdwl   =     -37.850365 
E_coul   =      23.008520 E_long   =     -26.177661 Press    =    -654.355901
------------ Step           7000 ----- CPU =    0.7901818 (sec) -------------
TotEng   =     231.226700 KinEng   =      66.419659 Temp     =     184.152226 
PotEng   =     164.807041 E_bond   =      13.805191 E_angle  =     147.297691 
E_dihed  =      37.495570 E_impro  =       0.736472 E_vdwl   =     -31.341054 
E_coul   =      22.999519 E_long   =     -26.186349 Press    =     -24.358370
------------ Step           7100 ----- CPU =    0.8011627 (sec) -------------
TotEng   =     233.140852 KinEng   =      70.456253 Temp     =     195.343906 
PotEng   =     162.684600 E_bond   =      11.563888 E_angle  =     158.126584 
E_dihed  =      38.952914 E_impro  =       1.655353 E_vdwl   =     -44.329528 
E_coul   =      22.909416 E_long   =     -26.194027 Press    =    -346.224363
------------ Step           7200 ----- CPU =    0.8121749 (sec) -------------
TotEng   =     238.085072 KinEng   =      69.999535 Temp     =     194.077632 
PotEng   =     168.085537 E_bond   =      11.096413 E_angle  =     150.390264 
E_dihed  =      38.413454 E_impro  =       1.738056 E_vdwl   =     -29.964601 
E_coul   =      22.608759 E_long   =     -26.196807 Press    =     753.345738
------------ Step           7300 ----- CPU =    0.8232634 (sec) -------------
TotEng   =     244.660359 KinEng   =      77.567317 Temp     =     215.059732 
PotEng   =     167.093041 E_bond   =      14.796838 E_angle  =     144.670232 
E_dihed  =      41.917263 E_impro  =       0.908166 E_vdwl   =     -31.538586 
E_coul   =      22.540850 E_long   =     -26.201721 Press    =      24.757338
------------ Step           7400 ----- CPU =     0.834178 (sec) -------------
TotEng   =     248.222613 KinEng   =      77.358873 Temp     =     214.481809 
PotEng   =     170.863740 E_bond   =      14.356577 E_angle  =     142.493912 
E_dihed  =      40.628276 E_impro  =       1.192043 E_vdwl   =     -24.123312 
E_coul   =      22.525845 E_long   =     -26.209601 Press    =     953.170982
------------ Step           7500 ----- CPU =    0.8449632 (sec) -------------
TotEng   =     249.123041 KinEng   =      86.313373 Temp     =     239.308660 
PotEng   =     162.809669 E_bond   =      18.829806 E_angle  =     135.950876 
E_dihed  =      35.770124 E_impro  =       0.350040 E_vdwl   =     -24.614480 
E_coul   =      22.720142 E_long   =     -26.196840 Press    =    -124.829820
------------ Step           7600 ----- CPU =     0.856335 (sec) -------------
TotEng   =     246.319427 KinEng   =      87.846468 Temp     =     243.559253 
PotEng   =     158.472959 E_bond   =      17.378383 E_angle  =     145.456016 
E_dihed  =      38.484405 E_impro  =       1.203745 E_vdwl   =     -40.691254 
E_coul   =      22.825250 E_long   =     -26.183585 Press    =    -606.035785
------------ Step           7700 ----- CPU =    0.8678423 (sec) -------------
TotEng   =     242.336309 KinEng   =      73.111828 Temp     =     202.706639 
PotEng   =     169.224480 E_bond   =      12.544105 E_angle  =     157.632869 
E_dihed  =      42.604915 E_impro  =       1.927156 E_vdwl   =     -42.707134 
E_coul   =      23.391893 E_long   =     -26.169324 Press    =    -177.483668
------------ Step           7800 ----- CPU =    0.8790489 (sec) -------------
TotEng   =     241.939206 KinEng   =      66.288435 Temp     =     183.788399 
PotEng   =     175.650771 E_bond   =      15.622577 E_angle  =     156.712980 
E_dihed  =      41.779383 E_impro  =       0.637170 E_vdwl   =     -36.318998 
E_coul   =      23.407484 E_long   =     -26.189825 Press    =      54.982653
------------ Step           7900 ----- CPU =    0.8899897 (sec) -------------
TotEng   =     248.617252 KinEng   =      79.082697 Temp     =     219.261206 
PotEng   =     169.534555 E_bond   =      16.176660 E_angle  =     151.049742 
E_dihed  =      41.479532 E_impro  =       0.781142 E_vdwl   =     -37.199216 
E_coul   =      23.436183 E_long   =     -26.189487 Press    =    -907.303920
------------ Step           8000 ----- CPU =    0.9011804 (sec) -------------
TotEng   =     256.701978 KinEng   =      93.449840 Temp     =     259.094914 
PotEng   =     163.252139 E_bond   =      18.181407 E_angle  =     144.615914 
E_dihed  =      39.484628 E_impro  =       2.338182 E_vdwl   =     -38.344098 
E_coul   =      23.150888 E_long   =     -26.174782 Press    =    -780.151720
------------ Step           8100 ----- CPU =    0.9126533 (sec) -------------
TotEng   =     258.732611 KinEng   =     103.432793 Temp     =     286.773210 
PotEng   =     155.299819 E_bond   =      12.960650 E_angle  =     140.458275 
E_dihed  =      34.095745 E_impro  =       1.226047 E_vdwl   =     -30.411965 
E_coul   =      23.158871 E_long   =     -26.187804 Press    =     783.767362
------------ Step           8200 ----- CPU =    0.9232685 (sec) -------------
TotEng   =     256.137885 KinEng   =      88.609598 Temp     =     245.675072 
PotEng   =     167.528288 E_bond   =      15.458264 E_angle  =     150.873276 
E_dihed  =      35.154614 E_impro  =       0.961997 E_vdwl   =     -31.798830 
E_coul   =      23.064666 E_long   =     -26.185700 Press    =     -27.196040
------------ Step           8300 ----- CPU =    0.9342482 (sec) -------------
TotEng   =     253.594769 KinEng   =      86.749590 Temp     =     240.518097 
PotEng   =     166.845179 E_bond   =      13.442379 E_angle  =     160.224156 
E_dihed  =      37.120593 E_impro  =       1.584305 E_vdwl   =     -42.185133 
E_coul   =      22.844402 E_long   =     -26.185523 Press    =     213.156779
------------ Step           8400 ----- CPU =    0.9453083 (sec) -------------
TotEng   =     251.739433 KinEng   =      79.146535 Temp     =     219.438201 
PotEng   =     172.592898 E_bond   =      13.585078 E_angle  =     161.024426 
E_dihed  =      38.029637 E_impro  =       0.906309 E_vdwl   =     -37.678868 
E_coul   =      22.910519 E_long   =     -26.184203 Press    =     438.637375
------------ Step           8500 ----- CPU =    0.9563164 (sec) -------------
TotEng   =     253.966589 KinEng   =      82.201672 Temp     =     227.908739 
PotEng   =     171.764918 E_bond   =      19.308438 E_angle  =     160.002750 
E_dihed  =      43.957480 E_impro  =       1.422901 E_vdwl   =     -49.506528 
E_coul   =      22.767257 E_long   =     -26.187380 Press    =    -805.760968
------------ Step           8600 ----- CPU =    0.9675366 (sec) -------------
TotEng   =     261.076490 KinEng   =      93.850754 Temp     =     260.206472 
PotEng   =     167.225736 E_bond   =      15.354875 E_angle  =     160.005340 
E_dihed  =      39.495907 E_impro  =       1.783311 E_vdwl   =     -46.207459 
E_coul   =      22.966387 E_long   =     -26.172624 Press    =    -278.933665
------------ Step           8700 ----- CPU =    0.9781989 (sec) -------------
TotEng   =     268.457458 KinEng   =     105.572966 Temp     =     292.706961 
PotEng   =     162.884492 E_bond   =      12.465392 E_angle  =     145.524207 
E_dihed  =      34.163131 E_impro  =       1.051973 E_vdwl   =     -26.996180 
E_coul   =      22.871698 E_long   =     -26.195728 Press    =    1014.276368
------------ Step           8800 ----- CPU =     0.988873 (sec) -------------
TotEng   =     272.855845 KinEng   =      88.864919 Temp     =     246.382966 
PotEng   =     183.990926 E_bond   =      12.898784 E_angle  =     169.164908 
E_dihed  =      40.891768 E_impro  =       1.665704 E_vdwl   =     -37.743632 
E_coul   =      23.294639 E_long   =     -26.181245 Press    =     341.422901
------------ Step           8900 ----- CPU =    0.9997901 (sec) -------------
TotEng   =     278.483939 KinEng   =      93.717622 Temp     =     259.837357 
PotEng   =     184.766316 E_bond   =      18.376737 E_angle  =     157.063683 
E_dihed  =      43.456279 E_impro  =       2.603697 E_vdwl   =     -33.876277 
E_coul   =      23.320237 E_long   =     -26.178039 Press    =    -808.630375
------------ Step           9000 ----- CPU =     1.010516 (sec) -------------
TotEng   =     282.183007 KinEng   =      97.229733 Temp     =     269.574881 
PotEng   =     184.953274 E_bond   =      20.714712 E_angle  =     180.870766 
E_dihed  =      33.442246 E_impro  =       0.925064 E_vdwl   =     -48.109358 
E_coul   =      23.294158 E_long   =     -26.184314 Press    =   -1052.970273
------------ Step           9100 ----- CPU =     1.021041 (sec) -------------
TotEng   =     284.686513 KinEng   =     102.297667 Temp     =     283.626011 
PotEng   =     182.388846 E_bond   =       9.325826 E_angle  =     181.231121 
E_dihed  =      33.420580 E_impro  =       1.920440 E_vdwl   =     -41.196990 
E_coul   =      23.877921 E_long   =     -26.190052 Press    =     753.648541
------------ Step           9200 ----- CPU =     1.031546 (sec) -------------
TotEng   =     286.194783 KinEng   =      95.186883 Temp     =     263.910964 
PotEng   =     191.007900 E_bond   =      19.819878 E_angle  =     167.281415 
E_dihed  =      40.606775 E_impro  =       1.829581 E_vdwl   =     -35.880204 
E_coul   =      23.526757 E_long   =     -26.176302 Press    =    -741.026782
------------ Step           9300 ----- CPU =       1.0423 (sec) -------------
TotEng   =     288.344721 KinEng   =     102.863025 Temp     =     285.193497 
PotEng   =     185.481697 E_bond   =      15.623834 E_angle  =     177.074266 
E_dihed  =      37.286768 E_impro  =       1.547202 E_vdwl   =     -43.076597 
E_coul   =      23.207777 E_long   =     -26.181552 Press    =     -52.716151
------------ Step           9400 ----- CPU =     1.053387 (sec) -------------
TotEng   =     290.265359 KinEng   =      97.224878 Temp     =     269.561420 
PotEng   =     193.040481 E_bond   =      14.340004 E_angle  =     174.325028 
E_dihed  =      37.717026 E_impro  =       1.374910 E_vdwl   =     -31.639943 
E_coul   =      23.109296 E_long   =     -26.185841 Press    =    1228.391758
------------ Step           9500 ----- CPU =     1.064612 (sec) -------------
TotEng   =     294.339446 KinEng   =     100.623491 Temp     =     278.984264 
PotEng   =     193.715955 E_bond   =      27.404994 E_angle  =     169.135062 
E_dihed  =      33.460036 E_impro  =       1.206465 E_vdwl   =     -34.610466 
E_coul   =      23.306402 E_long   =     -26.186538 Press    =   -1437.140949
------------ Step           9600 ----- CPU =     1.075684 (sec) -------------
TotEng   =     299.468740 KinEng   =     101.216850 Temp     =     280.629384 
PotEng   =     198.251890 E_bond   =      16.614938 E_angle  =     170.256306 
E_dihed  =      38.136536 E_impro  =       2.453021 E_vdwl   =     -26.515726 
E_coul   =      23.499516 E_long   =     -26.192700 Press    =     352.177680
------------ Step           9700 ----- CPU =     1.086863 (sec) -------------
TotEng   =     306.749180 KinEng   =     101.307120 Temp     =     280.879665 
PotEng   =     205.442059 E_bond   =      19.040888 E_angle  =     186.669406 
E_dihed  =      43.119928 E_impro  =       1.371908 E_vdwl   =     -41.646862 
E_coul   =      23.083150 E_long   =     -26.196358 Press    =    -752.707218
------------ Step           9800 ----- CPU =     1.098036 (sec) -------------
TotEng   =     317.571219 KinEng   =     113.864184 Temp     =     315.694826 
PotEng   =     203.707035 E_bond   =      21.167431 E_angle  =     170.286699 
E_dihed  =      39.587396 E_impro  =       0.865887 E_vdwl   =     -25.376295 
E_coul   =      23.373600 E_long   =     -26.197683 Press    =     867.471050
------------ Step           9900 ----- CPU =      1.10991 (sec) -------------
TotEng   =     322.552985 KinEng   =     113.108402 Temp     =     313.599379 
PotEng   =     209.444583 E_bond   =      28.925803 E_angle  =     162.643381 
E_dihed  =      45.065125 E_impro  =       1.292802 E_vdwl   =     -25.785253 
E_coul   =      23.497586 E_long   =     -26.194861 Press    =    -527.025340
------------ Step          10000 ----- CPU =      1.12109 (sec) -------------
TotEng   =     323.726971 KinEng   =     118.896404 Temp     =     329.646939 
PotEng   =     204.830567 E_bond   =      14.663010 E_angle  =     154.010529 
E_dihed  =      43.803847 E_impro  =       1.840327 E_vdwl   =      -6.789273 
E_coul   =      23.512720 E_long   =     -26.210592 Press    =    1730.513213
Loop time of 1.12112 on 8 procs for 10000 steps with 122 atoms

Performance: 385.331 ns/day, 0.062 hours/ns, 8919.688 timesteps/s, 1.088 Matom-step/s
99.7% CPU use with 8 MPI tasks x 1 OpenMP threads

MPI task timing breakdown:
Section |  min time  |  avg time  |  max time  |%varavg| %total
---------------------------------------------------------------
Pair    | 0.045519   | 0.073454   | 0.16877    |  13.7 |  6.55
Bond    | 0.016654   | 0.03976    | 0.08467    |  10.8 |  3.55
Kspace  | 0.47327    | 0.5766     | 0.62043    |   5.8 | 51.43
Neigh   | 0.012072   | 0.012267   | 0.012472   |   0.1 |  1.09
Comm    | 0.34156    | 0.37583    | 0.38598    |   2.2 | 33.52
Output  | 0.0034844  | 0.0035737  | 0.0041312  |   0.4 |  0.32
Modify  | 0.022821   | 0.027527   | 0.032771   |   2.0 |  2.46
Other   |            | 0.01211    |            |       |  1.08

Nlocal:          15.25 ave          34 max           2 min
Histogram: 2 1 1 0 1 1 0 0 1 1
Nghost:        610.375 ave         735 max         500 min
Histogram: 2 0 1 1 0 2 0 0 0 2
Neighs:         826.25 ave        2085 max          76 min
Histogram: 3 0 2 1 0 0 0 0 0 2

Total # of neighbors = 6610
Ave neighs/atom = 54.180328
Ave special neighs/atom = 10.967213
Neighbor list builds = 86
Dangerous builds = 0
unfix                4
undump               1

print                .
.
print                ================================================
================================================
print                "NPT dynamics with an isotropic pressure of 1atm."
NPT dynamics with an isotropic pressure of 1atm.
print                ================================================
================================================
print                .
.

fix                  2 all nvt temp ${rtemp} ${rtemp} 100.0
fix                  2 all nvt temp 298 ${rtemp} 100.0
fix                  2 all nvt temp 298 298 100.0
thermo               100
dump                 1 all custom 100 ${sname}.npt.lammpstrj id type xu yu zu vx vy vz
dump                 1 all custom 100 combined_mc.npt.lammpstrj id type xu yu zu vx vy vz
run                  500000 # run for 15 ns
PPPM initialization ...
  using 12-bit tables for long-range coulomb (src/kspace.cpp:342)
  G vector (1/distance) = 0.14809026
  grid = 3 3 3
  stencil order = 5
  estimated absolute RMS force accuracy = 0.031780157
  estimated relative force accuracy = 9.5704998e-05
  using double precision FFTW3
  3d grid and FFT values/proc = 343 8
Generated 28 of 28 mixed pair_coeff terms from geometric mixing rule
Per MPI rank memory allocation (min/avg/max) = 30.48 | 30.87 | 31.14 Mbytes
------------ Step          10000 ----- CPU =            0 (sec) -------------
TotEng   =     323.726971 KinEng   =     118.896404 Temp     =     329.646939 
PotEng   =     204.830567 E_bond   =      14.663010 E_angle  =     154.010529 
E_dihed  =      43.803847 E_impro  =       1.840327 E_vdwl   =      -6.789273 
E_coul   =      23.512720 E_long   =     -26.210592 Press    =    1730.513213
------------ Step          10100 ----- CPU =   0.01143779 (sec) -------------
TotEng   =     319.725997 KinEng   =     108.004408 Temp     =     299.448269 
PotEng   =     211.721589 E_bond   =      29.919413 E_angle  =     165.872999 
E_dihed  =      37.428295 E_impro  =       2.571569 E_vdwl   =     -21.016971 
E_coul   =      23.139443 E_long   =     -26.193159 Press    =      39.899241
------------ Step          10200 ----- CPU =   0.02310429 (sec) -------------
TotEng   =     314.370937 KinEng   =     107.307206 Temp     =     297.515239 
PotEng   =     207.063730 E_bond   =      31.515153 E_angle  =     168.561647 
E_dihed  =      34.968389 E_impro  =       1.975192 E_vdwl   =     -26.739706 
E_coul   =      22.968008 E_long   =     -26.184953 Press    =   -1206.240534
------------ Step          10300 ----- CPU =   0.03470604 (sec) -------------
TotEng   =     309.371701 KinEng   =      98.057261 Temp     =     271.869249 
PotEng   =     211.314439 E_bond   =      20.981832 E_angle  =     180.110376 
E_dihed  =      37.841167 E_impro  =       1.471423 E_vdwl   =     -26.255024 
E_coul   =      23.363903 E_long   =     -26.199238 Press    =    -483.888453
------------ Step          10400 ----- CPU =   0.04656813 (sec) -------------
TotEng   =     305.768532 KinEng   =      98.738732 Temp     =     273.758666 
PotEng   =     207.029800 E_bond   =      31.034898 E_angle  =     170.093202 
E_dihed  =      35.438290 E_impro  =       1.431131 E_vdwl   =     -28.106272 
E_coul   =      23.338020 E_long   =     -26.199470 Press    =   -1836.003524
------------ Step          10500 ----- CPU =   0.05816742 (sec) -------------
TotEng   =     304.448360 KinEng   =      97.720069 Temp     =     270.934363 
PotEng   =     206.728292 E_bond   =      21.412449 E_angle  =     158.348448 
E_dihed  =      38.121699 E_impro  =       1.748176 E_vdwl   =     -10.004295 
E_coul   =      23.316087 E_long   =     -26.214272 Press    =    1248.602718
------------ Step          10600 ----- CPU =   0.07016849 (sec) -------------
TotEng   =     307.092620 KinEng   =     107.065470 Temp     =     296.845012 
PotEng   =     200.027150 E_bond   =      26.714651 E_angle  =     168.744244 
E_dihed  =      35.274910 E_impro  =       1.709835 E_vdwl   =     -29.812941 
E_coul   =      23.611685 E_long   =     -26.215233 Press    =    -215.100750
------------ Step          10700 ----- CPU =   0.08195825 (sec) -------------
TotEng   =     313.832099 KinEng   =     122.981621 Temp     =     340.973431 
PotEng   =     190.850479 E_bond   =      18.579852 E_angle  =     148.012911 
E_dihed  =      35.463032 E_impro  =       2.012580 E_vdwl   =     -10.654099 
E_coul   =      23.652184 E_long   =     -26.215982 Press    =    1429.499145
------------ Step          10800 ----- CPU =   0.09393267 (sec) -------------
TotEng   =     318.152510 KinEng   =     113.388794 Temp     =     314.376782 
PotEng   =     204.763716 E_bond   =      23.683813 E_angle  =     166.696291 
E_dihed  =      45.651542 E_impro  =       1.465259 E_vdwl   =     -29.853177 
E_coul   =      23.332232 E_long   =     -26.212245 Press    =    -666.387470
------------ Step          10900 ----- CPU =    0.1061175 (sec) -------------
TotEng   =     320.101618 KinEng   =     101.976797 Temp     =     282.736381 
PotEng   =     218.124821 E_bond   =      24.456778 E_angle  =     168.693364 
E_dihed  =      46.707141 E_impro  =       1.734245 E_vdwl   =     -20.484928 
E_coul   =      23.241702 E_long   =     -26.223481 Press    =    -620.011916
------------ Step          11000 ----- CPU =     0.118101 (sec) -------------
TotEng   =     321.160772 KinEng   =     119.100475 Temp     =     330.212737 
PotEng   =     202.060297 E_bond   =      23.746394 E_angle  =     176.862236 
E_dihed  =      34.965745 E_impro  =       2.262485 E_vdwl   =     -32.671158 
E_coul   =      23.101479 E_long   =     -26.206884 Press    =    -840.237750
------------ Step          11100 ----- CPU =    0.1300944 (sec) -------------
TotEng   =     319.373919 KinEng   =     101.350858 Temp     =     281.000931 
PotEng   =     218.023061 E_bond   =      28.786213 E_angle  =     173.572839 
E_dihed  =      32.970415 E_impro  =       1.174532 E_vdwl   =     -15.266337 
E_coul   =      22.983494 E_long   =     -26.198096 Press    =     322.168505
------------ Step          11200 ----- CPU =    0.1428578 (sec) -------------
TotEng   =     318.568438 KinEng   =      97.489960 Temp     =     270.296375 
PotEng   =     221.078478 E_bond   =      21.976111 E_angle  =     177.567863 
E_dihed  =      35.939284 E_impro  =       1.560419 E_vdwl   =     -12.608270 
E_coul   =      22.841513 E_long   =     -26.198443 Press    =     747.319100
------------ Step          11300 ----- CPU =    0.1554069 (sec) -------------
TotEng   =     319.360169 KinEng   =     107.476073 Temp     =     297.983431 
PotEng   =     211.884096 E_bond   =      20.514721 E_angle  =     180.262369 
E_dihed  =      35.525312 E_impro  =       1.140887 E_vdwl   =     -22.167903 
E_coul   =      22.798618 E_long   =     -26.189908 Press    =    1176.084448
------------ Step          11400 ----- CPU =    0.1678053 (sec) -------------
TotEng   =     322.688985 KinEng   =     116.402803 Temp     =     322.733290 
PotEng   =     206.286182 E_bond   =      23.912530 E_angle  =     174.945349 
E_dihed  =      37.499496 E_impro  =       1.090880 E_vdwl   =     -27.987281 
E_coul   =      23.009424 E_long   =     -26.184217 Press    =    -647.526521
------------ Step          11500 ----- CPU =       0.1801 (sec) -------------
TotEng   =     327.752142 KinEng   =     102.265201 Temp     =     283.535996 
PotEng   =     225.486942 E_bond   =      28.560325 E_angle  =     192.626402 
E_dihed  =      40.773744 E_impro  =       5.300014 E_vdwl   =     -38.386748 
E_coul   =      22.799439 E_long   =     -26.186234 Press    =   -2155.468579
------------ Step          11600 ----- CPU =    0.1922358 (sec) -------------
TotEng   =     335.605726 KinEng   =     110.581012 Temp     =     306.592048 
PotEng   =     225.024714 E_bond   =      14.354369 E_angle  =     190.550249 
E_dihed  =      45.689342 E_impro  =       3.269174 E_vdwl   =     -25.554170 
E_coul   =      22.907418 E_long   =     -26.191667 Press    =    2598.133049
------------ Step          11700 ----- CPU =    0.2047028 (sec) -------------
TotEng   =     342.118164 KinEng   =     130.748940 Temp     =     362.508758 
PotEng   =     211.369225 E_bond   =      30.363276 E_angle  =     167.901424 
E_dihed  =      43.314493 E_impro  =       1.039374 E_vdwl   =     -28.060576 
E_coul   =      22.994780 E_long   =     -26.183546 Press    =   -1266.324745
------------ Step          11800 ----- CPU =    0.2170337 (sec) -------------
TotEng   =     339.909683 KinEng   =     118.315427 Temp     =     328.036147 
PotEng   =     221.594256 E_bond   =      25.465115 E_angle  =     163.572629 
E_dihed  =      39.499455 E_impro  =       0.960270 E_vdwl   =      -4.718069 
E_coul   =      22.997157 E_long   =     -26.182300 Press    =     352.577682
------------ Step          11900 ----- CPU =    0.2294128 (sec) -------------
TotEng   =     330.937355 KinEng   =     111.934526 Temp     =     310.344741 
PotEng   =     219.002829 E_bond   =      18.805564 E_angle  =     187.231598 
E_dihed  =      43.396278 E_impro  =       2.006863 E_vdwl   =     -28.958405 
E_coul   =      22.674502 E_long   =     -26.153570 Press    =     182.189759
------------ Step          12000 ----- CPU =    0.2418143 (sec) -------------
TotEng   =     321.559571 KinEng   =     114.165455 Temp     =     316.530117 
PotEng   =     207.394116 E_bond   =      20.045094 E_angle  =     171.198292 
E_dihed  =      37.380223 E_impro  =       1.862476 E_vdwl   =     -19.619949 
E_coul   =      22.683402 E_long   =     -26.155421 Press    =     323.797301
------------ Step          12100 ----- CPU =    0.2540486 (sec) -------------
TotEng   =     316.696885 KinEng   =     102.134371 Temp     =     283.173263 
PotEng   =     214.562514 E_bond   =      23.724063 E_angle  =     188.549424 
E_dihed  =      35.088682 E_impro  =       3.075643 E_vdwl   =     -32.724393 
E_coul   =      23.006259 E_long   =     -26.157163 Press    =   -1102.947410
------------ Step          12200 ----- CPU =    0.2664718 (sec) -------------
TotEng   =     315.196485 KinEng   =     103.353846 Temp     =     286.554327 
PotEng   =     211.842639 E_bond   =      20.111227 E_angle  =     182.482426 
E_dihed  =      34.795015 E_impro  =       1.615369 E_vdwl   =     -23.613181 
E_coul   =      22.604074 E_long   =     -26.152291 Press    =     333.546166
------------ Step          12300 ----- CPU =    0.2790497 (sec) -------------
TotEng   =     313.878673 KinEng   =     105.711183 Temp     =     293.090174 
PotEng   =     208.167490 E_bond   =      29.919732 E_angle  =     161.940666 
E_dihed  =      36.012979 E_impro  =       0.506705 E_vdwl   =     -17.040653 
E_coul   =      22.974589 E_long   =     -26.146529 Press    =    -340.672665
------------ Step          12400 ----- CPU =     0.291477 (sec) -------------
TotEng   =     313.354934 KinEng   =     101.193738 Temp     =     280.565306 
PotEng   =     212.161196 E_bond   =      23.166033 E_angle  =     165.257916 
E_dihed  =      40.291358 E_impro  =       4.195747 E_vdwl   =     -17.603335 
E_coul   =      23.020352 E_long   =     -26.166874 Press    =     739.495739
------------ Step          12500 ----- CPU =    0.3041764 (sec) -------------
TotEng   =     313.267361 KinEng   =     119.795771 Temp     =     332.140484 
PotEng   =     193.471590 E_bond   =      26.157107 E_angle  =     171.962342 
E_dihed  =      34.602810 E_impro  =       1.323667 E_vdwl   =     -37.520030 
E_coul   =      23.090834 E_long   =     -26.145140 Press    =    -641.189545
------------ Step          12600 ----- CPU =    0.3165815 (sec) -------------
TotEng   =     307.417752 KinEng   =     121.343504 Temp     =     336.431661 
PotEng   =     186.074248 E_bond   =      19.952624 E_angle  =     160.611611 
E_dihed  =      34.362100 E_impro  =       1.413821 E_vdwl   =     -27.315515 
E_coul   =      23.197546 E_long   =     -26.147939 Press    =     205.518205
------------ Step          12700 ----- CPU =    0.3287557 (sec) -------------
TotEng   =     297.009685 KinEng   =     101.256173 Temp     =     280.738412 
PotEng   =     195.753511 E_bond   =      21.942407 E_angle  =     172.611997 
E_dihed  =      47.804613 E_impro  =       1.042167 E_vdwl   =     -44.987689 
E_coul   =      23.477928 E_long   =     -26.137912 Press    =    -489.257878
------------ Step          12800 ----- CPU =    0.3413426 (sec) -------------
TotEng   =     289.733238 KinEng   =     103.642658 Temp     =     287.355073 
PotEng   =     186.090580 E_bond   =      32.743386 E_angle  =     146.461933 
E_dihed  =      43.214685 E_impro  =       1.461064 E_vdwl   =     -34.889067 
E_coul   =      23.246902 E_long   =     -26.148322 Press    =   -1832.611564
------------ Step          12900 ----- CPU =    0.3540028 (sec) -------------
TotEng   =     287.570607 KinEng   =     107.639319 Temp     =     298.436041 
PotEng   =     179.931288 E_bond   =      16.194879 E_angle  =     164.582688 
E_dihed  =      36.762225 E_impro  =       1.075822 E_vdwl   =     -35.663820 
E_coul   =      23.135832 E_long   =     -26.156337 Press    =    1654.054155
------------ Step          13000 ----- CPU =    0.3669333 (sec) -------------
TotEng   =     288.536651 KinEng   =      96.754163 Temp     =     268.256335 
PotEng   =     191.782488 E_bond   =      22.070797 E_angle  =     154.932890 
E_dihed  =      36.762175 E_impro  =       2.673847 E_vdwl   =     -21.663084 
E_coul   =      23.183989 E_long   =     -26.178126 Press    =     945.430661
------------ Step          13100 ----- CPU =    0.3791013 (sec) -------------
TotEng   =     292.654113 KinEng   =      92.521605 Temp     =     256.521332 
PotEng   =     200.132508 E_bond   =      34.546606 E_angle  =     154.898047 
E_dihed  =      37.887758 E_impro  =       1.405985 E_vdwl   =     -25.457826 
E_coul   =      23.021893 E_long   =     -26.169954 Press    =   -1559.244751
------------ Step          13200 ----- CPU =    0.3916979 (sec) -------------
TotEng   =     297.994829 KinEng   =     106.141869 Temp     =     294.284277 
PotEng   =     191.852959 E_bond   =      17.934826 E_angle  =     169.974517 
E_dihed  =      33.859403 E_impro  =       1.053961 E_vdwl   =     -27.341490 
E_coul   =      22.554692 E_long   =     -26.182949 Press    =    1449.902778
------------ Step          13300 ----- CPU =    0.4041289 (sec) -------------
TotEng   =     301.686762 KinEng   =     107.810649 Temp     =     298.911063 
PotEng   =     193.876113 E_bond   =      19.562472 E_angle  =     179.743271 
E_dihed  =      31.267373 E_impro  =       1.262738 E_vdwl   =     -34.763536 
E_coul   =      22.986381 E_long   =     -26.182585 Press    =     -63.463054
------------ Step          13400 ----- CPU =    0.4165095 (sec) -------------
TotEng   =     305.224519 KinEng   =      97.857674 Temp     =     271.315881 
PotEng   =     207.366845 E_bond   =      29.150955 E_angle  =     180.195560 
E_dihed  =      37.826171 E_impro  =       2.863473 E_vdwl   =     -39.255407 
E_coul   =      22.785867 E_long   =     -26.199773 Press    =   -2065.313876
------------ Step          13500 ----- CPU =    0.4288987 (sec) -------------
TotEng   =     310.232828 KinEng   =     104.488403 Temp     =     289.699951 
PotEng   =     205.744425 E_bond   =      25.146303 E_angle  =     172.640149 
E_dihed  =      37.469598 E_impro  =       2.174545 E_vdwl   =     -28.748598 
E_coul   =      23.213626 E_long   =     -26.151199 Press    =     208.521461
------------ Step          13600 ----- CPU =     0.441358 (sec) -------------
TotEng   =     314.967601 KinEng   =     112.215488 Temp     =     311.123725 
PotEng   =     202.752113 E_bond   =      26.389262 E_angle  =     166.617272 
E_dihed  =      33.956545 E_impro  =       1.320171 E_vdwl   =     -22.321814 
[...]
TotEng   =     302.435809 KinEng   =     112.323556 Temp     =     311.423351 
PotEng   =     190.112253 E_bond   =      28.258810 E_angle  =     156.883557 
E_dihed  =      43.632803 E_impro  =       2.197981 E_vdwl   =     -38.376980 
E_coul   =      23.685254 E_long   =     -26.169172 Press    =    -402.018395
------------ Step          21200 ----- CPU =     1.426035 (sec) -------------
TotEng   =     307.435677 KinEng   =     104.724097 Temp     =     290.353425 
PotEng   =     202.711580 E_bond   =      29.578807 E_angle  =     167.602970 
E_dihed  =      48.624440 E_impro  =       1.234906 E_vdwl   =     -41.502629 
E_coul   =      23.342798 E_long   =     -26.169712 Press    =   -1181.449274
------------ Step          21300 ----- CPU =     1.437078 (sec) -------------
TotEng   =     310.586653 KinEng   =     106.532878 Temp     =     295.368371 
PotEng   =     204.053775 E_bond   =      23.933533 E_angle  =     182.134816 
E_dihed  =      44.999862 E_impro  =       2.155810 E_vdwl   =     -46.832672 
E_coul   =      23.836856 E_long   =     -26.174431 Press    =    1157.959827
------------ Step          21400 ----- CPU =     1.448088 (sec) -------------
TotEng   =     311.541167 KinEng   =     120.528249 Temp     =     334.171321 
PotEng   =     191.012918 E_bond   =      29.956872 E_angle  =     157.689127 
E_dihed  =      46.464665 E_impro  =       1.917089 E_vdwl   =     -42.345147 
E_coul   =      23.510720 E_long   =     -26.180407 Press    =    -864.328223
------------ Step          21500 ----- CPU =     1.458854 (sec) -------------
TotEng   =     307.770028 KinEng   =     108.549135 Temp     =     300.958557 
PotEng   =     199.220893 E_bond   =      23.204174 E_angle  =     181.089431 
E_dihed  =      46.490694 E_impro  =       2.900516 E_vdwl   =     -51.650745 
E_coul   =      23.383592 E_long   =     -26.196769 Press    =    1575.664119
------------ Step          21600 ----- CPU =      1.46934 (sec) -------------
TotEng   =     299.090441 KinEng   =     112.095094 Temp     =     310.789927 
PotEng   =     186.995347 E_bond   =      29.967004 E_angle  =     157.847707 
E_dihed  =      45.995833 E_impro  =       1.563009 E_vdwl   =     -45.369751 
E_coul   =      23.188427 E_long   =     -26.196881 Press    =    -950.288543
------------ Step          21700 ----- CPU =     1.480526 (sec) -------------
TotEng   =     291.802072 KinEng   =     108.446227 Temp     =     300.673238 
PotEng   =     183.355845 E_bond   =      22.144691 E_angle  =     169.013008 
E_dihed  =      49.457328 E_impro  =       0.847309 E_vdwl   =     -55.602266 
E_coul   =      23.678366 E_long   =     -26.182590 Press    =   -1019.753852
------------ Step          21800 ----- CPU =     1.491311 (sec) -------------
TotEng   =     287.449807 KinEng   =     105.527418 Temp     =     292.580678 
PotEng   =     181.922389 E_bond   =      24.586413 E_angle  =     164.418009 
E_dihed  =      34.957488 E_impro  =       1.955369 E_vdwl   =     -41.218285 
E_coul   =      23.404332 E_long   =     -26.180938 Press    =    1900.727775
------------ Step          21900 ----- CPU =     1.502282 (sec) -------------
TotEng   =     285.774841 KinEng   =     106.160455 Temp     =     294.335807 
PotEng   =     179.614386 E_bond   =      31.326115 E_angle  =     162.017457 
E_dihed  =      37.920571 E_impro  =       2.351716 E_vdwl   =     -51.426604 
E_coul   =      23.595491 E_long   =     -26.170359 Press    =   -1974.628370
------------ Step          22000 ----- CPU =     1.513152 (sec) -------------
TotEng   =     285.645299 KinEng   =      96.649583 Temp     =     267.966383 
PotEng   =     188.995716 E_bond   =      21.964944 E_angle  =     177.273171 
E_dihed  =      43.959817 E_impro  =       4.453208 E_vdwl   =     -56.375446 
E_coul   =      23.842694 E_long   =     -26.122672 Press    =    1661.725871
------------ Step          22100 ----- CPU =     1.524058 (sec) -------------
TotEng   =     288.983437 KinEng   =     111.043753 Temp     =     307.875023 
PotEng   =     177.939684 E_bond   =      24.884981 E_angle  =     173.871812 
E_dihed  =      39.915868 E_impro  =       2.241913 E_vdwl   =     -60.350963 
E_coul   =      23.503586 E_long   =     -26.127513 Press    =    -688.408225
------------ Step          22200 ----- CPU =     1.535183 (sec) -------------
TotEng   =     292.962734 KinEng   =     108.656793 Temp     =     301.257045 
PotEng   =     184.305941 E_bond   =      22.260872 E_angle  =     181.082997 
E_dihed  =      41.416160 E_impro  =       1.409415 E_vdwl   =     -59.044391 
E_coul   =      23.325076 E_long   =     -26.144188 Press    =     647.904445
------------ Step          22300 ----- CPU =     1.546189 (sec) -------------
TotEng   =     295.790782 KinEng   =     106.533094 Temp     =     295.368969 
PotEng   =     189.257689 E_bond   =      29.596401 E_angle  =     170.684652 
E_dihed  =      40.703168 E_impro  =       2.195176 E_vdwl   =     -51.399170 
E_coul   =      23.602596 E_long   =     -26.125134 Press    =    -249.903544
------------ Step          22400 ----- CPU =     1.556941 (sec) -------------
TotEng   =     296.866904 KinEng   =     112.181840 Temp     =     311.030435 
PotEng   =     184.685064 E_bond   =      21.858883 E_angle  =     169.823122 
E_dihed  =      35.848213 E_impro  =       2.199879 E_vdwl   =     -42.457438 
E_coul   =      23.543247 E_long   =     -26.130842 Press    =    1336.587325
------------ Step          22500 ----- CPU =     1.567844 (sec) -------------
TotEng   =     296.511144 KinEng   =     114.794072 Temp     =     318.272994 
PotEng   =     181.717072 E_bond   =      20.608485 E_angle  =     179.533602 
E_dihed  =      39.165786 E_impro  =       2.128060 E_vdwl   =     -56.861624 
E_coul   =      23.315728 E_long   =     -26.172965 Press    =     435.597503
------------ Step          22600 ----- CPU =      1.57869 (sec) -------------
TotEng   =     295.206218 KinEng   =      94.513862 Temp     =     262.044976 
PotEng   =     200.692356 E_bond   =      26.024449 E_angle  =     194.644367 
E_dihed  =      41.303481 E_impro  =       1.920129 E_vdwl   =     -60.565386 
E_coul   =      23.540225 E_long   =     -26.174909 Press    =   -1159.152349
------------ Step          22700 ----- CPU =     1.589706 (sec) -------------
TotEng   =     297.984314 KinEng   =     107.017075 Temp     =     296.710834 
PotEng   =     190.967239 E_bond   =      25.605826 E_angle  =     179.341965 
E_dihed  =      42.242664 E_impro  =       1.201118 E_vdwl   =     -54.914647 
E_coul   =      23.636767 E_long   =     -26.146454 Press    =    -328.466286
------------ Step          22800 ----- CPU =     1.600832 (sec) -------------
TotEng   =     302.182268 KinEng   =     101.121122 Temp     =     280.363974 
PotEng   =     201.061147 E_bond   =      20.375170 E_angle  =     201.040622 
E_dihed  =      37.848887 E_impro  =       2.541955 E_vdwl   =     -58.393308 
E_coul   =      23.784462 E_long   =     -26.136642 Press    =     478.316078
------------ Step          22900 ----- CPU =     1.611895 (sec) -------------
TotEng   =     309.075726 KinEng   =     112.460727 Temp     =     311.803665 
PotEng   =     196.614999 E_bond   =      33.410938 E_angle  =     174.940549 
E_dihed  =      40.635079 E_impro  =       2.529516 E_vdwl   =     -52.553536 
E_coul   =      23.802457 E_long   =     -26.150004 Press    =    -515.646715
------------ Step          23000 ----- CPU =     1.622959 (sec) -------------
TotEng   =     314.221789 KinEng   =     117.730494 Temp     =     326.414387 
PotEng   =     196.491295 E_bond   =      18.063873 E_angle  =     196.874057 
E_dihed  =      40.675549 E_impro  =       2.906259 E_vdwl   =     -59.897657 
E_coul   =      24.024020 E_long   =     -26.154806 Press    =    -401.975836
------------ Step          23100 ----- CPU =     1.634146 (sec) -------------
TotEng   =     315.263632 KinEng   =     113.650753 Temp     =     315.103077 
PotEng   =     201.612879 E_bond   =      20.232789 E_angle  =     184.044745 
E_dihed  =      46.131832 E_impro  =       2.729346 E_vdwl   =     -49.341835 
E_coul   =      23.970509 E_long   =     -26.154507 Press    =    1293.371508
------------ Step          23200 ----- CPU =     1.645437 (sec) -------------
TotEng   =     313.487106 KinEng   =     117.477253 Temp     =     325.712262 
PotEng   =     196.009853 E_bond   =      30.872893 E_angle  =     173.703568 
E_dihed  =      42.274151 E_impro  =       1.828547 E_vdwl   =     -50.536382 
E_coul   =      24.024205 E_long   =     -26.157129 Press    =   -1168.137186
------------ Step          23300 ----- CPU =     1.656772 (sec) -------------
TotEng   =     301.679895 KinEng   =     102.553426 Temp     =     284.335117 
PotEng   =     199.126469 E_bond   =      24.295775 E_angle  =     193.870191 
E_dihed  =      43.486114 E_impro  =       1.372481 E_vdwl   =     -61.349625 
E_coul   =      23.595719 E_long   =     -26.144186 Press    =     383.576095
------------ Step          23400 ----- CPU =     1.668029 (sec) -------------
TotEng   =     289.327436 KinEng   =     110.304844 Temp     =     305.826357 
PotEng   =     179.022592 E_bond   =      19.490758 E_angle  =     175.319136 
E_dihed  =      37.575752 E_impro  =       3.427128 E_vdwl   =     -54.374657 
E_coul   =      23.720234 E_long   =     -26.135759 Press    =    -289.936740
------------ Step          23500 ----- CPU =     1.679262 (sec) -------------
TotEng   =     283.665818 KinEng   =      84.241845 Temp     =     233.565234 
PotEng   =     199.423973 E_bond   =      25.775732 E_angle  =     177.389680 
E_dihed  =      37.015548 E_impro  =       4.979716 E_vdwl   =     -42.997420 
E_coul   =      23.373281 E_long   =     -26.112564 Press    =    -550.693738
------------ Step          23600 ----- CPU =     1.690607 (sec) -------------
TotEng   =     285.246809 KinEng   =     109.166887 Temp     =     302.671308 
PotEng   =     176.079922 E_bond   =      28.627395 E_angle  =     170.138756 
E_dihed  =      29.039158 E_impro  =       1.794905 E_vdwl   =     -50.579543 
E_coul   =      23.213224 E_long   =     -26.153972 Press    =    -743.235540
------------ Step          23700 ----- CPU =     1.701925 (sec) -------------
TotEng   =     287.934429 KinEng   =     105.258433 Temp     =     291.834901 
PotEng   =     182.675996 E_bond   =      20.758997 E_angle  =     186.999083 
E_dihed  =      37.534461 E_impro  =       1.436335 E_vdwl   =     -61.163783 
E_coul   =      23.285901 E_long   =     -26.174998 Press    =    -420.964760
------------ Step          23800 ----- CPU =     1.713427 (sec) -------------
TotEng   =     293.589926 KinEng   =     101.996831 Temp     =     282.791928 
PotEng   =     191.593094 E_bond   =      22.008470 E_angle  =     189.417145 
E_dihed  =      32.540341 E_impro  =       0.810077 E_vdwl   =     -50.164406 
E_coul   =      23.155352 E_long   =     -26.173884 Press    =     649.163606
------------ Step          23900 ----- CPU =     1.724808 (sec) -------------
TotEng   =     301.487920 KinEng   =     115.541758 Temp     =     320.345996 
PotEng   =     185.946161 E_bond   =      28.803736 E_angle  =     172.250566 
E_dihed  =      33.803263 E_impro  =       2.519441 E_vdwl   =     -48.337508 
E_coul   =      23.092469 E_long   =     -26.185806 Press    =     392.299018
------------ Step          24000 ----- CPU =      1.73623 (sec) -------------
TotEng   =     307.221076 KinEng   =     112.019351 Temp     =     310.579923 
PotEng   =     195.201726 E_bond   =      29.604456 E_angle  =     181.383954 
E_dihed  =      35.935546 E_impro  =       2.070470 E_vdwl   =     -50.762901 
E_coul   =      23.148165 E_long   =     -26.177964 Press    =    -250.539771
------------ Step          24100 ----- CPU =     1.747509 (sec) -------------
TotEng   =     308.913983 KinEng   =     120.734297 Temp     =     334.742601 
PotEng   =     188.179686 E_bond   =      24.874409 E_angle  =     170.163292 
E_dihed  =      36.239260 E_impro  =       2.171978 E_vdwl   =     -42.185036 
E_coul   =      23.115135 E_long   =     -26.199353 Press    =     393.652504
------------ Step          24200 ----- CPU =     1.758903 (sec) -------------
TotEng   =     307.808105 KinEng   =     105.774963 Temp     =     293.267009 
PotEng   =     202.033142 E_bond   =      35.050310 E_angle  =     193.523980 
E_dihed  =      29.791083 E_impro  =       1.150009 E_vdwl   =     -53.955013 
E_coul   =      22.677143 E_long   =     -26.204369 Press    =   -1425.381917
------------ Step          24300 ----- CPU =     1.770318 (sec) -------------
TotEng   =     307.045679 KinEng   =     116.591499 Temp     =     323.256462 
PotEng   =     190.454179 E_bond   =      31.199564 E_angle  =     167.605664 
E_dihed  =      36.206939 E_impro  =       1.930806 E_vdwl   =     -43.207749 
E_coul   =      22.907465 E_long   =     -26.188509 Press    =   -1072.273636
------------ Step          24400 ----- CPU =     1.781877 (sec) -------------
TotEng   =     304.451027 KinEng   =      96.437762 Temp     =     267.379097 
PotEng   =     208.013265 E_bond   =      21.326245 E_angle  =     199.147313 
E_dihed  =      39.604668 E_impro  =       4.242184 E_vdwl   =     -53.224657 
E_coul   =      23.106906 E_long   =     -26.189394 Press    =    2102.354929
------------ Step          24500 ----- CPU =     1.793742 (sec) -------------
TotEng   =     303.947707 KinEng   =     107.713354 Temp     =     298.641305 
PotEng   =     196.234353 E_bond   =      25.133566 E_angle  =     189.575618 
E_dihed  =      40.638172 E_impro  =       1.502038 E_vdwl   =     -57.323958 
E_coul   =      22.883603 E_long   =     -26.174686 Press    =     -77.212995
------------ Step          24600 ----- CPU =     1.806062 (sec) -------------
TotEng   =     306.256063 KinEng   =     110.868751 Temp     =     307.389821 
PotEng   =     195.387312 E_bond   =      27.668332 E_angle  =     187.069385 
E_dihed  =      41.958787 E_impro  =       1.432906 E_vdwl   =     -59.577070 
E_coul   =      23.019198 E_long   =     -26.184225 Press    =   -1289.605701
------------ Step          24700 ----- CPU =      1.81782 (sec) -------------
TotEng   =     310.231244 KinEng   =     119.661312 Temp     =     331.767690 
PotEng   =     190.569932 E_bond   =      25.378538 E_angle  =     176.059555 
E_dihed  =      39.490743 E_impro  =       2.511841 E_vdwl   =     -49.793709 
E_coul   =      23.119701 E_long   =     -26.196739 Press    =    1221.972345
------------ Step          24800 ----- CPU =     1.829869 (sec) -------------
TotEng   =     312.213568 KinEng   =     125.554338 Temp     =     348.106434 
PotEng   =     186.659230 E_bond   =      27.748868 E_angle  =     167.287158 
E_dihed  =      39.970942 E_impro  =       1.630519 E_vdwl   =     -46.975502 
E_coul   =      23.178760 E_long   =     -26.181515 Press    =     732.526073
------------ Step          24900 ----- CPU =     1.842066 (sec) -------------
TotEng   =     306.200059 KinEng   =     105.134949 Temp     =     291.492534 
PotEng   =     201.065110 E_bond   =      37.954648 E_angle  =     185.063505 
E_dihed  =      36.791880 E_impro  =       3.837610 E_vdwl   =     -59.674060 
E_coul   =      23.255556 E_long   =     -26.164029 Press    =    -717.224484
------------ Step          25000 ----- CPU =     1.854195 (sec) -------------
TotEng   =     296.803042 KinEng   =     119.931364 Temp     =     332.516423 
PotEng   =     176.871678 E_bond   =      27.199304 E_angle  =     174.524718 
E_dihed  =      32.558016 E_impro  =       0.801539 E_vdwl   =     -55.282434 
E_coul   =      23.225500 E_long   =     -26.154964 Press    =    -305.351395
------------ Step          25100 ----- CPU =     1.866259 (sec) -------------
TotEng   =     286.241824 KinEng   =     100.592268 Temp     =     278.897697 
PotEng   =     185.649556 E_bond   =      25.769421 E_angle  =     183.335657 
E_dihed  =      36.763525 E_impro  =       1.281080 E_vdwl   =     -58.817073 
E_coul   =      23.466229 E_long   =     -26.149283 Press    =    1242.511520
------------ Step          25200 ----- CPU =     1.878877 (sec) -------------
TotEng   =     280.825425 KinEng   =      98.313482 Temp     =     272.579636 
PotEng   =     182.511942 E_bond   =      30.254476 E_angle  =     177.527579 
E_dihed  =      36.410225 E_impro  =       0.643395 E_vdwl   =     -59.544514 
E_coul   =      23.376108 E_long   =     -26.155326 Press    =     -96.056839
------------ Step          25300 ----- CPU =     1.891108 (sec) -------------
TotEng   =     279.297396 KinEng   =     106.318942 Temp     =     294.775222 
PotEng   =     172.978454 E_bond   =      30.420978 E_angle  =     161.908519 
E_dihed  =      37.914067 E_impro  =       0.876776 E_vdwl   =     -55.221835 
E_coul   =      23.236423 E_long   =     -26.156475 Press    =    -741.893231
------------ Step          25400 ----- CPU =     1.903365 (sec) -------------
TotEng   =     280.163285 KinEng   =     111.671660 Temp     =     309.615931 
PotEng   =     168.491625 E_bond   =      19.981230 E_angle  =     175.941843 
E_dihed  =      35.222487 E_impro  =       2.382171 E_vdwl   =     -62.269175 
E_coul   =      23.402406 E_long   =     -26.169338 Press    =     626.669205
------------ Step          25500 ----- CPU =     1.915785 (sec) -------------
TotEng   =     279.517170 KinEng   =      99.531501 Temp     =     275.956660 
PotEng   =     179.985670 E_bond   =      35.088048 E_angle  =     167.841933 
E_dihed  =      38.805459 E_impro  =       1.285436 E_vdwl   =     -60.275804 
E_coul   =      23.413402 E_long   =     -26.172803 Press    =    -769.407293
------------ Step          25600 ----- CPU =     1.928562 (sec) -------------
TotEng   =     279.862381 KinEng   =      94.102045 Temp     =     260.903191 
PotEng   =     185.760335 E_bond   =      29.631480 E_angle  =     179.348563 
E_dihed  =      36.558703 E_impro  =       1.533350 E_vdwl   =     -58.433022 
E_coul   =      23.294696 E_long   =     -26.173435 Press    =    -166.074067
------------ Step          25700 ----- CPU =     1.941167 (sec) -------------
TotEng   =     283.283634 KinEng   =     109.212910 Temp     =     302.798910 
PotEng   =     174.070724 E_bond   =      21.705549 E_angle  =     179.278879 
E_dihed  =      33.748788 E_impro  =       0.815827 E_vdwl   =     -58.631632 
E_coul   =      23.317142 E_long   =     -26.163829 Press    =    1933.563964
------------ Step          25800 ----- CPU =     1.954176 (sec) -------------
TotEng   =     290.605915 KinEng   =     109.511747 Temp     =     303.627453 
PotEng   =     181.094168 E_bond   =      32.373675 E_angle  =     179.362152 
E_dihed  =      34.960423 E_impro  =       2.228175 E_vdwl   =     -65.311085 
E_coul   =      23.668019 E_long   =     -26.187193 Press    =    -549.777468
------------ Step          25900 ----- CPU =     1.966828 (sec) -------------
TotEng   =     298.559453 KinEng   =     114.027953 Temp     =     316.148885 
PotEng   =     184.531501 E_bond   =      27.854125 E_angle  =     182.767291 
E_dihed  =      39.423753 E_impro  =       1.176166 E_vdwl   =     -63.883281 
E_coul   =      23.386294 E_long   =     -26.192846 Press    =   -1632.053074
------------ Step          26000 ----- CPU =     1.980058 (sec) -------------
TotEng   =     304.530265 KinEng   =     113.219196 Temp     =     313.906562 
PotEng   =     191.311069 E_bond   =      25.363301 E_angle  =     197.279113 
E_dihed  =      38.726207 E_impro  =       1.252973 E_vdwl   =     -68.413685 
E_coul   =      23.311681 E_long   =     -26.208521 Press    =     832.080994
------------ Step          26100 ----- CPU =      1.99278 (sec) -------------
TotEng   =     306.991926 KinEng   =     120.751489 Temp     =     334.790265 
PotEng   =     186.240438 E_bond   =      25.575082 E_angle  =     181.623196 
E_dihed  =      38.145885 E_impro  =       1.813971 E_vdwl   =     -58.211887 
E_coul   =      23.486029 E_long   =     -26.191839 Press    =    -740.235606
