LAMMPS (8 Feb 2023)
OMP_NUM_THREADS environment is not set. Defaulting to 1 thread. (src/comm.cpp:98)
  using 1 OpenMP thread(s) per MPI task
# define variables

variable       spacing index 10.0
variable       lbox index 20.0
variable       sname string simplified_mc
variable       rtemp index 300


#package omp 4

units           real
atom_style      full
boundary        p p p
#pair_style      lj/cut/coul/long  14
pair_style      lj/charmm/coul/long/opt 13 14.00000
#pair_modify     mix arithmetic tail yes
#special_bonds   lj/coul 0.0 0.0 1.0
kspace_style    ewald 0.0001
bond_style      harmonic
angle_style     harmonic
dihedral_style  harmonic
improper_style  umbrella
#kspace_style    pppm 0.0001

# initialize a simple cumbic box for the initial structure

lattice        sc ${spacing}
lattice        sc 10.0
Lattice spacing in x,y,z = 10 10 10
region         mybox block 0 ${lbox} 0 ${lbox} 0 ${lbox} units box
region         mybox block 0 20.0 0 ${lbox} 0 ${lbox} units box
region         mybox block 0 20.0 0 20.0 0 ${lbox} units box
region         mybox block 0 20.0 0 20.0 0 20.0 units box
create_box     8 mybox                bond/types 13                angle/types 5                dihedral/types 11                improper/types 1                extra/bond/per/atom 13                extra/angle/per/atom 10                extra/dihedral/per/atom 20                extra/improper/per/atom 20                extra/special/per/atom 100
Created orthogonal box = (0 0 0) to (20 20 20)
  1 by 1 by 1 MPI processor grid

molecule       69 xlig.lammps.txt
Read molecule template 69:
  1 molecules
  0 fragments
  68 atoms with max type 7
  70 bonds with max type 10
  128 angles with max type 4
  188 dihedrals with max type 11
  39 impropers with max type 1
molecule       420 oleic.lammps.txt
Read molecule template 420:
  1 molecules
  0 fragments
  54 atoms with max type 6
  53 bonds with max type 13
  100 angles with max type 5
  141 dihedrals with max type 9
  9 impropers with max type 1


pair_modify          mix geometric
#neighbor             2.0 multi
#neigh_modify         every 2 delay 4 check yes
thermo_style         multi
thermo_modify        line multi format float %14.6f flush yes



# originally used box instead of single, which takes no args and auto populates the box until full
create_atoms   0 single 10 10 10   mol 69 42 units box
Created 68 atoms
  using box units in orthogonal box = (0 0 0) to (20 20 20)
  create_atoms CPU = 0.001 seconds
create_atoms   0 single 0 0 0  mol 420 42 units box
Created 54 atoms
  using box units in orthogonal box = (0 0 0) to (20 20 20)
  create_atoms CPU = 0.000 seconds


group xligand molecule == 69
0 atoms in group xligand
#group xligand id 1:68
#group xligand include molecule

group oleic_acid molecule == 420
0 atoms in group oleic_acid
#group oleic_acid id 69:122
#group oleic_acid include molecule



# coeffs
# Masses

mass    1 1.2011E+01 # C_3
mass    2 1.4007E+01 # N_3
mass    3 1.2011E+01 # C_R
mass    4 1.5999E+01 # O_2
mass    5 3.2060E+01 # S_3
mass    6 1.0080E+00 # H_
mass    7 1.0080E+00 # H___A
mass    8 1.5999E+01 # O_R


pair_coeff           1 1 0.09510000 3.47299041 # C_3 C_3
pair_coeff           2 2 0.07740000 3.26256026 # N_3 N_3
pair_coeff           3 3 0.09510000 3.47299041 # C_R C_R
pair_coeff           4 4 0.09570000 3.03315369 # O_2 O_2
pair_coeff           5 5 0.34400001 3.59032202 # S_3 S_3
pair_coeff           6 6 0.01520000 2.84642134 # H_ H_
pair_coeff           7 7 0.01520000 2.84642134 # H___A H___A
pair_coeff           8 8 0.09570000 3.03315369 # O_R O_R


pair_modify          mix geometric
neighbor             2.0 multi
neigh_modify         every 2 delay 4 check yes
thermo_style         multi
WARNING: New thermo_style command, previous thermo_modify settings will be lost (src/output.cpp:896)
thermo_modify        line multi format float %14.6f flush yes

bond_coeff           1 350 1.53000 # C_3 C_3
bond_coeff           2 350 1.09000 # C_3 H_
bond_coeff           3 350 1.46200 # N_3 C_3
bond_coeff           4 350 1.39200 # N_3 C_R
bond_coeff           5 525 1.39000 # C_R C_R
bond_coeff           6 350 1.02000 # C_R H_
bond_coeff           7 700 1.25000 # O_2 C_R
bond_coeff           8 350 1.73000 # S_3 C_R
bond_coeff           9 350 1.80000 # S_3 C_3
bond_coeff           10 350 1.36000 # S_3 H___A
bond_coeff           11 525 1.35000 # O_R C_R
bond_coeff           12 350 0.98000 # O_R H___A
bond_coeff           13 350 1.46000 # C_R C_3


angle_coeff          1 50 109.47100 # X C_3 X
angle_coeff          2 50 106.70000 # X N_3 X
angle_coeff          3 50 120 # X C_R X
angle_coeff          4 50 92.10000 # X S_3 X
angle_coeff          5 50 120 # X O_R X


dihedral_coeff       1 0.08333 -1 6 # C_R C_R C_3 X
dihedral_coeff       2 0.08333 -1 6 # O_2 C_R C_3 X
dihedral_coeff       3 0.08333 -1 6 # O_R C_R C_3 X
dihedral_coeff       4 0.11111 1 3 # X C_3 C_3 X
dihedral_coeff       5 0.16667 1 3 # X C_R C_3 X
dihedral_coeff       6 3.12500 -1 2 # X C_R C_R X
dihedral_coeff       7 0.16667 1 3 # X N_3 C_3 X
dihedral_coeff       8 0.12500 -1 6 # X N_3 C_R C_R
dihedral_coeff       9 6.25000 -1 2 # X O_R C_R X
dihedral_coeff       10 0.33333 1 3 # X S_3 C_3 X
dihedral_coeff       11 0.50000 -1 2 # X S_3 C_R X

improper_coeff       1 13.33333 0 # C_R X X X

timestep             0.5

print                .
.
print                ==========================================
==========================================
print                "500 steps CG Minimization"
500 steps CG Minimization
print                ==========================================
==========================================
print                .
.

dump                 1 all custom 25 ${sname}.min.lammpstrj id type xu yu zu vx vy vz
dump                 1 all custom 25 simplified_mc.min.lammpstrj id type xu yu zu vx vy vz
thermo               10
min_style            cg
minimize             1.0e-4 1.0e-4 500 5000

CITE-CITE-CITE-CITE-CITE-CITE-CITE-CITE-CITE-CITE-CITE-CITE-CITE

Your simulation uses code contributions which should be cited:

- neighbor multi command: doi:10.1016/j.cpc.2008.03.005, doi:10.1007/s40571-020-00361-2

@Article{Intveld08,
 author =  {in 't Veld, P. J. and S. J.~Plimpton and G. S. Grest},
 title =   {Accurate and Efficient Methods for Modeling Colloidal
            Mixtures in an Explicit Solvent using Molecular Dynamics},
 journal = {Comput.\ Phys.\ Commut.},
 year =    2008,
 volume =  179,
 pages =   {320--329}
}

@article{Shire2020,
 author = {Shire, Tom and Hanley, Kevin J. and Stratford, Kevin},
 title = {{DEM} Simulations of Polydisperse Media: Efficient Contact
          Detection Applied to Investigate the Quasi-Static Limit},
 journal = {Computational Particle Mechanics},
 year = {2020}
}

CITE-CITE-CITE-CITE-CITE-CITE-CITE-CITE-CITE-CITE-CITE-CITE-CITE

Switching to 'neigh_modify every 1 delay 0 check yes' setting during minimization
Ewald initialization ...
WARNING: System is not charge neutral, net charge = -0.0006 (src/kspace.cpp:327)
  using 12-bit tables for long-range coulomb (src/kspace.cpp:342)
  G vector (1/distance) = 0.091315817
  estimated absolute RMS force accuracy = 0.034067589
  estimated relative force accuracy = 0.00010259353
  KSpace vectors: actual max1d max3d = 3 1 13
                  kxmax kymax kzmax  = 1 1 1
Generated 28 of 28 mixed pair_coeff terms from geometric mixing rule
Neighbor list info ...
  update: every = 1 steps, delay = 0 steps, check = yes
  max neighbors/atom: 2000, page size: 100000
  master list distance cutoff = 16
  ghost atom cutoff = 16
  binsize = 8, bins = 3 3 3
  1 neighbor lists, perpetual/occasional/extra = 1 0 0
  (1) pair lj/charmm/coul/long/opt, perpetual
      attributes: half, newton on
      pair build: half/multi/newton
      stencil: half/multi/3d
      bin: multi
Per MPI rank memory allocation (min/avg/max) = 34.05 | 34.05 | 34.05 Mbytes
------------ Step              0 ----- CPU =            0 (sec) -------------
TotEng   =   47702.739403 KinEng   =       0.000000 Temp     =       0.000000 
PotEng   =   47702.739403 E_bond   =     110.088059 E_angle  =      36.601372 
E_dihed  =      19.805602 E_impro  =       3.329327 E_vdwl   =   47534.568145 
E_coul   =      14.541173 E_long   =     -16.194275 Press    = 1638353.761727
------------ Step             10 ----- CPU =  0.004430252 (sec) -------------
TotEng   =     596.328787 KinEng   =       0.000000 Temp     =       0.000000 
PotEng   =     596.328787 E_bond   =      29.092585 E_angle  =     169.458814 
E_dihed  =      21.557488 E_impro  =       0.960121 E_vdwl   =     377.158172 
E_coul   =      14.292449 E_long   =     -16.190841 Press    =   19067.998260
------------ Step             20 ----- CPU =   0.01080341 (sec) -------------
TotEng   =     249.850599 KinEng   =       0.000000 Temp     =       0.000000 
PotEng   =     249.850599 E_bond   =      35.496544 E_angle  =     124.677896 
E_dihed  =      28.321853 E_impro  =       0.443008 E_vdwl   =      63.072505 
E_coul   =      14.029424 E_long   =     -16.190631 Press    =    2722.572857
------------ Step             30 ----- CPU =   0.01788164 (sec) -------------
TotEng   =     225.972273 KinEng   =       0.000000 Temp     =       0.000000 
PotEng   =     225.972273 E_bond   =      39.618210 E_angle  =     129.254209 
E_dihed  =      30.451618 E_impro  =       0.382901 E_vdwl   =      28.391768 
E_coul   =      14.064877 E_long   =     -16.191311 Press    =     305.603343
------------ Step             40 ----- CPU =   0.02473391 (sec) -------------
TotEng   =     219.786672 KinEng   =       0.000000 Temp     =       0.000000 
PotEng   =     219.786672 E_bond   =      34.484094 E_angle  =     129.084093 
E_dihed  =      30.985085 E_impro  =       0.487246 E_vdwl   =      26.817438 
E_coul   =      14.121248 E_long   =     -16.192534 Press    =     307.202091
------------ Step             50 ----- CPU =   0.03175849 (sec) -------------
TotEng   =     215.723883 KinEng   =       0.000000 Temp     =       0.000000 
PotEng   =     215.723883 E_bond   =      33.890767 E_angle  =     124.123501 
E_dihed  =      31.058740 E_impro  =       0.646177 E_vdwl   =      28.070354 
E_coul   =      14.128338 E_long   =     -16.193995 Press    =     378.696982
------------ Step             60 ----- CPU =   0.03953824 (sec) -------------
TotEng   =     211.069248 KinEng   =       0.000000 Temp     =       0.000000 
PotEng   =     211.069248 E_bond   =      32.989417 E_angle  =     125.700686 
E_dihed  =      31.930270 E_impro  =       0.637513 E_vdwl   =      22.013072 
E_coul   =      13.993409 E_long   =     -16.195120 Press    =      -4.340969
------------ Step             70 ----- CPU =   0.04640464 (sec) -------------
TotEng   =     208.852078 KinEng   =       0.000000 Temp     =       0.000000 
PotEng   =     208.852078 E_bond   =      31.731766 E_angle  =     125.592842 
E_dihed  =      32.788984 E_impro  =       0.501010 E_vdwl   =      20.700952 
E_coul   =      13.731832 E_long   =     -16.195308 Press    =     -19.031962
------------ Step             80 ----- CPU =   0.05344858 (sec) -------------
TotEng   =     207.619682 KinEng   =       0.000000 Temp     =       0.000000 
PotEng   =     207.619682 E_bond   =      30.797855 E_angle  =     124.635052 
E_dihed  =      32.280441 E_impro  =       0.410012 E_vdwl   =      21.931183 
E_coul   =      13.760014 E_long   =     -16.194875 Press    =      17.143243
------------ Step             90 ----- CPU =   0.06030058 (sec) -------------
TotEng   =     205.989502 KinEng   =       0.000000 Temp     =       0.000000 
PotEng   =     205.989502 E_bond   =      31.262144 E_angle  =     123.459366 
E_dihed  =      31.357782 E_impro  =       0.513904 E_vdwl   =      21.977937 
E_coul   =      13.612277 E_long   =     -16.193908 Press    =    -182.860197
------------ Step             95 ----- CPU =   0.08213934 (sec) -------------
TotEng   =     205.345434 KinEng   =       0.000000 Temp     =       0.000000 
PotEng   =     205.345434 E_bond   =      31.256940 E_angle  =     124.109575 
E_dihed  =      30.968575 E_impro  =       0.522200 E_vdwl   =      21.072483 
E_coul   =      13.609042 E_long   =     -16.193379 Press    =    -268.491226
Loop time of 0.082153 on 1 procs for 95 steps with 122 atoms

99.4% CPU use with 1 MPI tasks x 1 OpenMP threads

Minimization stats:
  Stopping criterion = linesearch alpha is zero
  Energy initial, next-to-last, final = 
      47702.7394031284   205.345434110941   205.345434110941
  Force two-norm initial, final = 806464.22 17.295112
  Force max component initial, final = 496010.82 3.8946361
  Final line search alpha, max atom move = 3.9542969e-11 1.5400547e-10
  Iterations, force evaluations = 95 232

MPI task timing breakdown:
Section |  min time  |  avg time  |  max time  |%varavg| %total
---------------------------------------------------------------
Pair    | 0.066458   | 0.066458   | 0.066458   |   0.0 | 80.90
Bond    | 0.0078516  | 0.0078516  | 0.0078516  |   0.0 |  9.56
Kspace  | 0.0032023  | 0.0032023  | 0.0032023  |   0.0 |  3.90
Neigh   | 0.0016533  | 0.0016533  | 0.0016533  |   0.0 |  2.01
Comm    | 0.0015416  | 0.0015416  | 0.0015416  |   0.0 |  1.88
Output  | 0.00066669 | 0.00066669 | 0.00066669 |   0.0 |  0.81
Modify  | 0          | 0          | 0          |   0.0 |  0.00
Other   |            | 0.000779   |            |       |  0.95

Nlocal:            122 ave         122 max         122 min
Histogram: 1 0 0 0 0 0 0 0 0 0
Nghost:           1778 ave        1778 max        1778 min
Histogram: 1 0 0 0 0 0 0 0 0 0
Neighs:          14789 ave       14789 max       14789 min
Histogram: 1 0 0 0 0 0 0 0 0 0

Total # of neighbors = 14789
Ave neighs/atom = 121.22131
Ave special neighs/atom = 10.967213
Neighbor list builds = 2
Dangerous builds = 0
min_style            sd
minimize             1.0e-4 1.0e-4 500 5000
Switching to 'neigh_modify every 1 delay 0 check yes' setting during minimization
Ewald initialization ...
  using 12-bit tables for long-range coulomb (src/kspace.cpp:342)
  G vector (1/distance) = 0.091315817
  estimated absolute RMS force accuracy = 0.034067589
  estimated relative force accuracy = 0.00010259353
  KSpace vectors: actual max1d max3d = 3 1 13
                  kxmax kymax kzmax  = 1 1 1
Generated 28 of 28 mixed pair_coeff terms from geometric mixing rule
Per MPI rank memory allocation (min/avg/max) = 34.05 | 34.05 | 34.05 Mbytes
------------ Step             95 ----- CPU =            0 (sec) -------------
TotEng   =     205.345434 KinEng   =       0.000000 Temp     =       0.000000 
PotEng   =     205.345434 E_bond   =      31.256940 E_angle  =     124.109575 
E_dihed  =      30.968575 E_impro  =       0.522200 E_vdwl   =      21.072483 
E_coul   =      13.609042 E_long   =     -16.193379 Press    =    -268.491226
------------ Step            100 ----- CPU =  0.003673056 (sec) -------------
TotEng   =     205.173040 KinEng   =       0.000000 Temp     =       0.000000 
PotEng   =     205.173040 E_bond   =      31.264771 E_angle  =     123.956632 
E_dihed  =      30.955378 E_impro  =       0.531958 E_vdwl   =      21.049732 
E_coul   =      13.607982 E_long   =     -16.193413 Press    =    -244.190797
------------ Step            104 ----- CPU =  0.006961407 (sec) -------------
TotEng   =     205.076324 KinEng   =       0.000000 Temp     =       0.000000 
PotEng   =     205.076324 E_bond   =      31.237050 E_angle  =     123.939660 
E_dihed  =      30.940751 E_impro  =       0.530301 E_vdwl   =      21.027027 
E_coul   =      13.594959 E_long   =     -16.193424 Press    =    -237.321352
Loop time of 0.00697403 on 1 procs for 9 steps with 122 atoms

99.3% CPU use with 1 MPI tasks x 1 OpenMP threads

Minimization stats:
  Stopping criterion = energy tolerance
  Energy initial, next-to-last, final = 
      205.345434110941   205.096470468925   205.076324343458
  Force two-norm initial, final = 17.295112 6.4188986
  Force max component initial, final = 3.8946361 1.6463643
  Final line search alpha, max atom move = 0.026816678 0.044150021
  Iterations, force evaluations = 9 18

MPI task timing breakdown:
Section |  min time  |  avg time  |  max time  |%varavg| %total
---------------------------------------------------------------
Pair    | 0.0055145  | 0.0055145  | 0.0055145  |   0.0 | 79.07
Bond    | 0.00064221 | 0.00064221 | 0.00064221 |   0.0 |  9.21
Kspace  | 0.00026475 | 0.00026475 | 0.00026475 |   0.0 |  3.80
Neigh   | 0          | 0          | 0          |   0.0 |  0.00
Comm    | 0.00012714 | 0.00012714 | 0.00012714 |   0.0 |  1.82
Output  | 0.000192   | 0.000192   | 0.000192   |   0.0 |  2.75
Modify  | 0          | 0          | 0          |   0.0 |  0.00
Other   |            | 0.0002335  |            |       |  3.35

Nlocal:            122 ave         122 max         122 min
Histogram: 1 0 0 0 0 0 0 0 0 0
Nghost:           1772 ave        1772 max        1772 min
Histogram: 1 0 0 0 0 0 0 0 0 0
Neighs:          14833 ave       14833 max       14833 min
Histogram: 1 0 0 0 0 0 0 0 0 0

Total # of neighbors = 14833
Ave neighs/atom = 121.58197
Ave special neighs/atom = 10.967213
Neighbor list builds = 0
Dangerous builds = 0
#now                 minimize the entire system
minimize             1.0e-4 1.0e-4 500 5000
Switching to 'neigh_modify every 1 delay 0 check yes' setting during minimization
Ewald initialization ...
  using 12-bit tables for long-range coulomb (src/kspace.cpp:342)
  G vector (1/distance) = 0.091315817
  estimated absolute RMS force accuracy = 0.034067589
  estimated relative force accuracy = 0.00010259353
  KSpace vectors: actual max1d max3d = 3 1 13
                  kxmax kymax kzmax  = 1 1 1
Generated 28 of 28 mixed pair_coeff terms from geometric mixing rule
Per MPI rank memory allocation (min/avg/max) = 34.05 | 34.05 | 34.05 Mbytes
------------ Step            104 ----- CPU =            0 (sec) -------------
TotEng   =     205.076324 KinEng   =       0.000000 Temp     =       0.000000 
PotEng   =     205.076324 E_bond   =      31.237050 E_angle  =     123.939660 
E_dihed  =      30.940751 E_impro  =       0.530301 E_vdwl   =      21.027027 
E_coul   =      13.594959 E_long   =     -16.193424 Press    =    -237.321352
------------ Step            105 ----- CPU =  0.001270081 (sec) -------------
TotEng   =     205.056190 KinEng   =       0.000000 Temp     =       0.000000 
PotEng   =     205.056190 E_bond   =      31.246060 E_angle  =     123.917920 
E_dihed  =      30.937011 E_impro  =       0.530112 E_vdwl   =      21.023341 
E_coul   =      13.595173 E_long   =     -16.193426 Press    =    -233.838700
Loop time of 0.00128299 on 1 procs for 1 steps with 122 atoms

99.1% CPU use with 1 MPI tasks x 1 OpenMP threads

Minimization stats:
  Stopping criterion = energy tolerance
  Energy initial, next-to-last, final = 
      205.076324343458   205.076324343458   205.056190121107
  Force two-norm initial, final = 6.4188986 10.477346
  Force max component initial, final = 1.6463643 3.789046
  Final line search alpha, max atom move = 0.060739898 0.23014627
  Iterations, force evaluations = 1 2

MPI task timing breakdown:
Section |  min time  |  avg time  |  max time  |%varavg| %total
---------------------------------------------------------------
Pair    | 0.00090195 | 0.00090195 | 0.00090195 |   0.0 | 70.30
Bond    | 0.00011119 | 0.00011119 | 0.00011119 |   0.0 |  8.67
Kspace  | 4.2359e-05 | 4.2359e-05 | 4.2359e-05 |   0.0 |  3.30
Neigh   | 0          | 0          | 0          |   0.0 |  0.00
Comm    | 2.7673e-05 | 2.7673e-05 | 2.7673e-05 |   0.0 |  2.16
Output  | 0          | 0          | 0          |   0.0 |  0.00
Modify  | 0          | 0          | 0          |   0.0 |  0.00
Other   |            | 0.0001998  |            |       | 15.57

Nlocal:            122 ave         122 max         122 min
Histogram: 1 0 0 0 0 0 0 0 0 0
Nghost:           1772 ave        1772 max        1772 min
Histogram: 1 0 0 0 0 0 0 0 0 0
Neighs:          14835 ave       14835 max       14835 min
Histogram: 1 0 0 0 0 0 0 0 0 0

Total # of neighbors = 14835
Ave neighs/atom = 121.59836
Ave special neighs/atom = 10.967213
Neighbor list builds = 0
Dangerous builds = 0
undump               1

print                .
.
print                =====================================
=====================================
print                "NVT dynamics to heat system"
NVT dynamics to heat system
print                =====================================
=====================================
print                .
.

reset_timestep       0
##fix                  shakeH all shake 0.0001 20 500 m 1.0079
velocity             all create 0.0 12345678 dist uniform
thermo               100
dump                 1 all custom 1000 ${sname}.heat.lammpstrj id type xu yu zu vx vy vz
dump                 1 all custom 1000 simplified_mc.heat.lammpstrj id type xu yu zu vx vy vz
fix                  4 all nvt temp 1.0 300.0 100.0
run                  10000
Ewald initialization ...
  using 12-bit tables for long-range coulomb (src/kspace.cpp:342)
  G vector (1/distance) = 0.091315817
  estimated absolute RMS force accuracy = 0.034067589
  estimated relative force accuracy = 0.00010259353
  KSpace vectors: actual max1d max3d = 3 1 13
                  kxmax kymax kzmax  = 1 1 1
Generated 28 of 28 mixed pair_coeff terms from geometric mixing rule
Per MPI rank memory allocation (min/avg/max) = 32.92 | 32.92 | 32.92 Mbytes
------------ Step              0 ----- CPU =            0 (sec) -------------
TotEng   =     205.056190 KinEng   =       0.000000 Temp     =       0.000000 
PotEng   =     205.056190 E_bond   =      31.246060 E_angle  =     123.917920 
E_dihed  =      30.937011 E_impro  =       0.530112 E_vdwl   =      21.023341 
E_coul   =      13.595173 E_long   =     -16.193426 Press    =    -233.838700
------------ Step            100 ----- CPU =   0.02492147 (sec) -------------
TotEng   =     205.217066 KinEng   =       0.839134 Temp     =       2.326546 
PotEng   =     204.377932 E_bond   =      31.040304 E_angle  =     123.553050 
E_dihed  =      30.372280 E_impro  =       0.499438 E_vdwl   =      21.402784 
E_coul   =      13.703515 E_long   =     -16.193439 Press    =    -123.389257
------------ Step            200 ----- CPU =   0.04950316 (sec) -------------
TotEng   =     205.420164 KinEng   =       2.072195 Temp     =       5.745275 
PotEng   =     203.347969 E_bond   =      30.915965 E_angle  =     123.927007 
E_dihed  =      29.549693 E_impro  =       0.477456 E_vdwl   =      20.997836 
E_coul   =      13.672686 E_long   =     -16.192673 Press    =      -6.572282
------------ Step            300 ----- CPU =   0.07413583 (sec) -------------
TotEng   =     205.599440 KinEng   =       3.801582 Temp     =      10.540100 
PotEng   =     201.797858 E_bond   =      31.409340 E_angle  =     124.550529 
E_dihed  =      27.118543 E_impro  =       0.458474 E_vdwl   =      20.898966 
E_coul   =      13.554382 E_long   =     -16.192376 Press    =     -81.615393
------------ Step            400 ----- CPU =   0.09947484 (sec) -------------
TotEng   =     205.897009 KinEng   =       5.251535 Temp     =      14.560175 
PotEng   =     200.645474 E_bond   =      31.552738 E_angle  =     125.770613 
E_dihed  =      25.261143 E_impro  =       0.457457 E_vdwl   =      20.276150 
E_coul   =      13.519120 E_long   =     -16.191747 Press    =     -63.945480
------------ Step            500 ----- CPU =    0.1237977 (sec) -------------
TotEng   =     206.205125 KinEng   =       5.430092 Temp     =      15.055235 
PotEng   =     200.775033 E_bond   =      31.353474 E_angle  =     127.570437 
E_dihed  =      24.706981 E_impro  =       0.454656 E_vdwl   =      19.219631 
E_coul   =      13.661507 E_long   =     -16.191653 Press    =     -31.216025
------------ Step            600 ----- CPU =    0.1489183 (sec) -------------
TotEng   =     206.478690 KinEng   =       5.440339 Temp     =      15.083645 
PotEng   =     201.038350 E_bond   =      31.521790 E_angle  =     127.727925 
E_dihed  =      25.750486 E_impro  =       0.510830 E_vdwl   =      18.120446 
E_coul   =      13.598862 E_long   =     -16.191988 Press    =    -196.757547
------------ Step            700 ----- CPU =    0.1728623 (sec) -------------
TotEng   =     207.140252 KinEng   =       6.848386 Temp     =      18.987535 
PotEng   =     200.291866 E_bond   =      31.432076 E_angle  =     127.323474 
E_dihed  =      26.892531 E_impro  =       0.601575 E_vdwl   =      16.754180 
E_coul   =      13.480035 E_long   =     -16.192005 Press    =    -343.118250
------------ Step            800 ----- CPU =    0.1980159 (sec) -------------
TotEng   =     208.055582 KinEng   =       9.572613 Temp     =      26.540607 
PotEng   =     198.482969 E_bond   =      31.581567 E_angle  =     128.440219 
E_dihed  =      25.293397 E_impro  =       0.673467 E_vdwl   =      15.229656 
E_coul   =      13.457684 E_long   =     -16.193021 Press    =    -318.694678
------------ Step            900 ----- CPU =     0.223133 (sec) -------------
TotEng   =     208.493541 KinEng   =       9.192018 Temp     =      25.485386 
PotEng   =     199.301523 E_bond   =      31.639035 E_angle  =     129.125764 
E_dihed  =      25.136268 E_impro  =       0.867212 E_vdwl   =      15.419783 
E_coul   =      13.307961 E_long   =     -16.194501 Press    =    -154.313150
------------ Step           1000 ----- CPU =    0.2477853 (sec) -------------
TotEng   =     209.377482 KinEng   =       8.952193 Temp     =      24.820455 
PotEng   =     200.425289 E_bond   =      30.638719 E_angle  =     129.291199 
E_dihed  =      26.763731 E_impro  =       0.748886 E_vdwl   =      15.777081 
E_coul   =      13.401429 E_long   =     -16.195757 Press    =     -71.030396
------------ Step           1100 ----- CPU =    0.2729615 (sec) -------------
TotEng   =     210.821456 KinEng   =       9.899409 Temp     =      27.446666 
PotEng   =     200.922047 E_bond   =      29.915156 E_angle  =     129.727113 
E_dihed  =      28.267807 E_impro  =       0.613307 E_vdwl   =      14.941716 
E_coul   =      13.653469 E_long   =     -16.196520 Press    =     -34.718990
------------ Step           1200 ----- CPU =    0.2969344 (sec) -------------
TotEng   =     211.969366 KinEng   =      10.820709 Temp     =      30.001023 
PotEng   =     201.148657 E_bond   =      29.975830 E_angle  =     130.195470 
E_dihed  =      28.850525 E_impro  =       0.647796 E_vdwl   =      14.131850 
E_coul   =      13.543986 E_long   =     -16.196802 Press    =     -80.369895
------------ Step           1300 ----- CPU =    0.3218601 (sec) -------------
TotEng   =     213.753708 KinEng   =      11.249657 Temp     =      31.190303 
PotEng   =     202.504051 E_bond   =      29.848711 E_angle  =     130.544249 
E_dihed  =      30.101996 E_impro  =       0.594749 E_vdwl   =      13.820392 
E_coul   =      13.791145 E_long   =     -16.197190 Press    =     -81.681823
------------ Step           1400 ----- CPU =    0.3467868 (sec) -------------
TotEng   =     215.473725 KinEng   =      12.903355 Temp     =      35.775274 
PotEng   =     202.570370 E_bond   =      29.268368 E_angle  =     129.928411 
E_dihed  =      31.087967 E_impro  =       0.511283 E_vdwl   =      14.224195 
E_coul   =      13.747898 E_long   =     -16.197752 Press    =      96.955629
------------ Step           1500 ----- CPU =    0.3718331 (sec) -------------
TotEng   =     217.246837 KinEng   =      15.197625 Temp     =      42.136265 
PotEng   =     202.049213 E_bond   =      29.660744 E_angle  =     129.919032 
E_dihed  =      31.404497 E_impro  =       0.553546 E_vdwl   =      13.010247 
E_coul   =      13.699526 E_long   =     -16.198379 Press    =      33.873492
------------ Step           1600 ----- CPU =    0.3959434 (sec) -------------
TotEng   =     218.764897 KinEng   =      18.669748 Temp     =      51.762922 
PotEng   =     200.095149 E_bond   =      29.983984 E_angle  =     130.417107 
E_dihed  =      30.235098 E_impro  =       0.539379 E_vdwl   =      11.754665 
E_coul   =      13.364123 E_long   =     -16.199207 Press    =     -98.553716
------------ Step           1700 ----- CPU =    0.4210153 (sec) -------------
TotEng   =     220.152105 KinEng   =      19.156643 Temp     =      53.112867 
PotEng   =     200.995461 E_bond   =      30.242512 E_angle  =     129.758780 
E_dihed  =      28.874897 E_impro  =       0.429604 E_vdwl   =      14.473357 
E_coul   =      13.416067 E_long   =     -16.199756 Press    =     -16.377345
------------ Step           1800 ----- CPU =    0.4460035 (sec) -------------
TotEng   =     221.124101 KinEng   =      20.002019 Temp     =      55.456717 
PotEng   =     201.122082 E_bond   =      29.236499 E_angle  =     132.892368 
E_dihed  =      25.414684 E_impro  =       0.386505 E_vdwl   =      15.978631 
E_coul   =      13.413727 E_long   =     -16.200332 Press    =     278.578596
------------ Step           1900 ----- CPU =    0.4710942 (sec) -------------
TotEng   =     222.233439 KinEng   =      17.110541 Temp     =      47.439933 
PotEng   =     205.122898 E_bond   =      30.567861 E_angle  =     141.834821 
E_dihed  =      24.487172 E_impro  =       0.519889 E_vdwl   =      10.589727 
E_coul   =      13.321706 E_long   =     -16.198277 Press    =     -59.014446
------------ Step           2000 ----- CPU =    0.4965069 (sec) -------------
TotEng   =     224.763375 KinEng   =      18.519960 Temp     =      51.347628 
PotEng   =     206.243415 E_bond   =      31.287847 E_angle  =     141.858708 
E_dihed  =      27.201036 E_impro  =       0.626523 E_vdwl   =       7.804167 
E_coul   =      13.659491 E_long   =     -16.194358 Press    =    -336.968331
------------ Step           2100 ----- CPU =    0.5217719 (sec) -------------
TotEng   =     227.109496 KinEng   =      25.821163 Temp     =      71.590622 
PotEng   =     201.288332 E_bond   =      30.810476 E_angle  =     137.787852 
E_dihed  =      26.574854 E_impro  =       0.751062 E_vdwl   =       7.792179 
E_coul   =      13.760440 E_long   =     -16.188531 Press    =    -499.090117
------------ Step           2200 ----- CPU =    0.5470984 (sec) -------------
TotEng   =     228.122299 KinEng   =      23.876142 Temp     =      66.197941 
PotEng   =     204.246157 E_bond   =      30.780238 E_angle  =     139.216382 
E_dihed  =      22.645584 E_impro  =       1.031913 E_vdwl   =      13.056597 
E_coul   =      13.704802 E_long   =     -16.189358 Press    =     -85.377067
------------ Step           2300 ----- CPU =    0.5721877 (sec) -------------
TotEng   =     228.966132 KinEng   =      24.336769 Temp     =      67.475054 
PotEng   =     204.629363 E_bond   =      30.295521 E_angle  =     134.511188 
E_dihed  =      30.662938 E_impro  =       0.876927 E_vdwl   =      10.628329 
E_coul   =      13.842704 E_long   =     -16.188244 Press    =    -312.031700
------------ Step           2400 ----- CPU =    0.5975432 (sec) -------------
TotEng   =     229.768023 KinEng   =      26.151246 Temp     =      72.505795 
PotEng   =     203.616776 E_bond   =      29.417183 E_angle  =     137.628087 
E_dihed  =      31.065563 E_impro  =       1.138962 E_vdwl   =       6.954846 
E_coul   =      13.601643 E_long   =     -16.189508 Press    =     -64.794821
------------ Step           2500 ----- CPU =    0.6229852 (sec) -------------
TotEng   =     230.778072 KinEng   =      25.398525 Temp     =      70.418834 
PotEng   =     205.379546 E_bond   =      28.756058 E_angle  =     141.080137 
E_dihed  =      30.346409 E_impro  =       0.994152 E_vdwl   =       6.738249 
E_coul   =      13.655324 E_long   =     -16.190783 Press    =     -71.898887
------------ Step           2600 ----- CPU =    0.6482722 (sec) -------------
TotEng   =     231.840414 KinEng   =      28.955090 Temp     =      80.279608 
PotEng   =     202.885325 E_bond   =      27.151241 E_angle  =     138.379667 
E_dihed  =      34.422512 E_impro  =       0.952113 E_vdwl   =       5.099865 
E_coul   =      13.070702 E_long   =     -16.190776 Press    =     162.714813
------------ Step           2700 ----- CPU =     0.673034 (sec) -------------
TotEng   =     233.660191 KinEng   =      30.555523 Temp     =      84.716899 
PotEng   =     203.104668 E_bond   =      26.648830 E_angle  =     136.042583 
E_dihed  =      36.262962 E_impro  =       1.049351 E_vdwl   =       5.751471 
E_coul   =      13.540325 E_long   =     -16.190854 Press    =    -119.863068
------------ Step           2800 ----- CPU =    0.6987742 (sec) -------------
TotEng   =     234.666974 KinEng   =      30.488112 Temp     =      84.529999 
PotEng   =     204.178862 E_bond   =      25.921105 E_angle  =     138.529820 
E_dihed  =      34.310584 E_impro  =       1.287632 E_vdwl   =       6.787986 
E_coul   =      13.531276 E_long   =     -16.189542 Press    =      28.440175
------------ Step           2900 ----- CPU =    0.7246846 (sec) -------------
TotEng   =     235.360768 KinEng   =      31.289949 Temp     =      86.753137 
PotEng   =     204.070819 E_bond   =      26.273910 E_angle  =     140.391543 
E_dihed  =      32.313298 E_impro  =       0.683903 E_vdwl   =       6.972550 
E_coul   =      13.622215 E_long   =     -16.186600 Press    =      63.249115
------------ Step           3000 ----- CPU =    0.7508475 (sec) -------------
TotEng   =     236.417851 KinEng   =      33.929267 Temp     =      94.070793 
PotEng   =     202.488583 E_bond   =      28.940511 E_angle  =     136.566417 
E_dihed  =      35.502765 E_impro  =       0.668383 E_vdwl   =       3.334145 
E_coul   =      13.665332 E_long   =     -16.188970 Press    =    -443.689843
------------ Step           3100 ----- CPU =     0.776659 (sec) -------------
TotEng   =     237.128899 KinEng   =      35.878531 Temp     =      99.475236 
PotEng   =     201.250369 E_bond   =      29.610937 E_angle  =     139.646261 
E_dihed  =      29.710517 E_impro  =       0.712153 E_vdwl   =       3.797077 
E_coul   =      13.961487 E_long   =     -16.188063 Press    =    -851.723874
------------ Step           3200 ----- CPU =    0.8011799 (sec) -------------
TotEng   =     236.994302 KinEng   =      36.203507 Temp     =     100.376251 
PotEng   =     200.790795 E_bond   =      28.957515 E_angle  =     132.774914 
E_dihed  =      27.651254 E_impro  =       0.676853 E_vdwl   =      13.240927 
E_coul   =      13.677703 E_long   =     -16.188372 Press    =    -100.888034
------------ Step           3300 ----- CPU =    0.8267931 (sec) -------------
TotEng   =     236.403432 KinEng   =      34.832640 Temp     =      96.575445 
PotEng   =     201.570792 E_bond   =      30.033076 E_angle  =     133.412984 
E_dihed  =      33.609107 E_impro  =       0.513981 E_vdwl   =       6.779919 
E_coul   =      13.412840 E_long   =     -16.191115 Press    =     -24.220712
------------ Step           3400 ----- CPU =    0.8523188 (sec) -------------
TotEng   =     235.530842 KinEng   =      41.019038 Temp     =     113.727580 
PotEng   =     194.511804 E_bond   =      28.245867 E_angle  =     131.485123 
E_dihed  =      32.235418 E_impro  =       0.362999 E_vdwl   =       4.736603 
E_coul   =      13.637476 E_long   =     -16.191684 Press    =     -85.376429
------------ Step           3500 ----- CPU =    0.8772747 (sec) -------------
TotEng   =     232.775049 KinEng   =      35.757205 Temp     =      99.138854 
PotEng   =     197.017844 E_bond   =      28.487913 E_angle  =     128.541657 
E_dihed  =      32.843684 E_impro  =       1.030843 E_vdwl   =       8.509007 
E_coul   =      13.797231 E_long   =     -16.192492 Press    =    -306.706548
------------ Step           3600 ----- CPU =    0.9028123 (sec) -------------
TotEng   =     230.641208 KinEng   =      34.485931 Temp     =      95.614174 
PotEng   =     196.155277 E_bond   =      25.731765 E_angle  =     129.366117 
E_dihed  =      35.708052 E_impro  =       0.565410 E_vdwl   =       7.487543 
E_coul   =      13.489486 E_long   =     -16.193096 Press    =     297.669602
------------ Step           3700 ----- CPU =    0.9280551 (sec) -------------
TotEng   =     230.371933 KinEng   =      36.313055 Temp     =     100.679979 
PotEng   =     194.058878 E_bond   =      26.861923 E_angle  =     131.009818 
E_dihed  =      34.632741 E_impro  =       0.537101 E_vdwl   =       3.919831 
E_coul   =      13.288767 E_long   =     -16.191303 Press    =      93.045789
------------ Step           3800 ----- CPU =    0.9532301 (sec) -------------
TotEng   =     232.768319 KinEng   =      36.931936 Temp     =     102.395861 
PotEng   =     195.836384 E_bond   =      27.435150 E_angle  =     135.295750 
E_dihed  =      31.402575 E_impro  =       0.570971 E_vdwl   =       3.784523 
E_coul   =      13.538689 E_long   =     -16.191275 Press    =    -621.301427
------------ Step           3900 ----- CPU =    0.9773332 (sec) -------------
TotEng   =     236.751930 KinEng   =      39.067521 Temp     =     108.316890 
PotEng   =     197.684409 E_bond   =      25.255095 E_angle  =     132.869144 
E_dihed  =      35.426348 E_impro  =       0.743160 E_vdwl   =       6.409295 
E_coul   =      13.175162 E_long   =     -16.193796 Press    =      -7.294664
------------ Step           4000 ----- CPU =     1.002724 (sec) -------------
TotEng   =     240.052882 KinEng   =      35.385175 Temp     =      98.107379 
PotEng   =     204.667707 E_bond   =      25.819559 E_angle  =     127.794569 
E_dihed  =      39.943922 E_impro  =       0.658647 E_vdwl   =      13.284920 
E_coul   =      13.359844 E_long   =     -16.193754 Press    =     903.816470
------------ Step           4100 ----- CPU =     1.026854 (sec) -------------
TotEng   =     242.834413 KinEng   =      40.150331 Temp     =     111.319041 
PotEng   =     202.684082 E_bond   =      27.728003 E_angle  =     128.709423 
E_dihed  =      35.247042 E_impro  =       0.876054 E_vdwl   =      12.660707 
E_coul   =      13.657086 E_long   =     -16.194232 Press    =     136.358064
------------ Step           4200 ----- CPU =     1.051953 (sec) -------------
TotEng   =     245.824396 KinEng   =      44.363725 Temp     =     123.000913 
PotEng   =     201.460670 E_bond   =      31.414033 E_angle  =     131.098599 
E_dihed  =      32.419632 E_impro  =       0.579843 E_vdwl   =       8.711356 
E_coul   =      13.431771 E_long   =     -16.194564 Press    =      22.384278
------------ Step           4300 ----- CPU =     1.077156 (sec) -------------
TotEng   =     249.163848 KinEng   =      44.414570 Temp     =     123.141883 
PotEng   =     204.749278 E_bond   =      28.305829 E_angle  =     136.031184 
E_dihed  =      39.381201 E_impro  =       0.535978 E_vdwl   =       3.605095 
E_coul   =      13.083177 E_long   =     -16.193185 Press    =     -96.772896
------------ Step           4400 ----- CPU =     1.102492 (sec) -------------
TotEng   =     252.488044 KinEng   =      50.222874 Temp     =     139.245730 
PotEng   =     202.265170 E_bond   =      25.141401 E_angle  =     140.702592 
E_dihed  =      40.089619 E_impro  =       0.633203 E_vdwl   =      -1.634694 
E_coul   =      13.526992 E_long   =     -16.193943 Press    =    -992.102339
------------ Step           4500 ----- CPU =     1.127952 (sec) -------------
TotEng   =     254.131547 KinEng   =      47.362063 Temp     =     131.313973 
PotEng   =     206.769484 E_bond   =      27.473197 E_angle  =     136.320540 
E_dihed  =      35.149934 E_impro  =       1.078597 E_vdwl   =       9.539202 
E_coul   =      13.400728 E_long   =     -16.192714 Press    =    -447.027451
------------ Step           4600 ----- CPU =     1.152407 (sec) -------------
TotEng   =     255.651135 KinEng   =      47.741405 Temp     =     132.365719 
PotEng   =     207.909731 E_bond   =      29.596068 E_angle  =     134.918525 
E_dihed  =      36.525069 E_impro  =       0.681013 E_vdwl   =       9.473274 
E_coul   =      12.908765 E_long   =     -16.192984 Press    =    -236.850701
------------ Step           4700 ----- CPU =     1.178989 (sec) -------------
TotEng   =     258.695703 KinEng   =      52.085790 Temp     =     144.410771 
PotEng   =     206.609912 E_bond   =      25.064100 E_angle  =     138.154637 
E_dihed  =      37.145861 E_impro  =       1.551088 E_vdwl   =       7.571219 
E_coul   =      13.316427 E_long   =     -16.193422 Press    =     224.529491
------------ Step           4800 ----- CPU =       1.2037 (sec) -------------
TotEng   =     261.285051 KinEng   =      49.312724 Temp     =     136.722289 
PotEng   =     211.972327 E_bond   =      24.201946 E_angle  =     136.345937 
E_dihed  =      42.332618 E_impro  =       0.963434 E_vdwl   =      11.037148 
E_coul   =      13.283914 E_long   =     -16.192669 Press    =     135.881533
------------ Step           4900 ----- CPU =      1.22947 (sec) -------------
TotEng   =     265.289322 KinEng   =      54.798114 Temp     =     151.930840 
PotEng   =     210.491209 E_bond   =      23.728057 E_angle  =     144.312350 
E_dihed  =      38.356962 E_impro  =       1.082567 E_vdwl   =       5.521516 
E_coul   =      13.684248 E_long   =     -16.194491 Press    =     348.273956
------------ Step           5000 ----- CPU =     1.254372 (sec) -------------
TotEng   =     268.075659 KinEng   =      57.554808 Temp     =     159.573928 
PotEng   =     210.520851 E_bond   =      25.114274 E_angle  =     142.971280 
E_dihed  =      38.505893 E_impro  =       1.556716 E_vdwl   =       5.084604 
E_coul   =      13.480134 E_long   =     -16.192050 Press    =     -39.780270
------------ Step           5100 ----- CPU =     1.280007 (sec) -------------
TotEng   =     268.970484 KinEng   =      62.598760 Temp     =     173.558569 
PotEng   =     206.371723 E_bond   =      26.933364 E_angle  =     122.872642 
E_dihed  =      48.052105 E_impro  =       0.845830 E_vdwl   =      10.670720 
E_coul   =      13.189774 E_long   =     -16.192712 Press    =    -793.458424
------------ Step           5200 ----- CPU =     1.305478 (sec) -------------
TotEng   =     266.906563 KinEng   =      53.083279 Temp     =     147.176365 
PotEng   =     213.823284 E_bond   =      25.390893 E_angle  =     128.750938 
E_dihed  =      49.484769 E_impro  =       1.049739 E_vdwl   =      12.514917 
E_coul   =      12.822628 E_long   =     -16.190600 Press    =     396.475397
------------ Step           5300 ----- CPU =     1.331219 (sec) -------------
TotEng   =     266.967984 KinEng   =      55.530927 Temp     =     153.962606 
PotEng   =     211.437056 E_bond   =      26.681601 E_angle  =     133.879316 
E_dihed  =      43.976905 E_impro  =       0.813624 E_vdwl   =       9.321267 
E_coul   =      12.953209 E_long   =     -16.188865 Press    =     152.653771
------------ Step           5400 ----- CPU =     1.356918 (sec) -------------
TotEng   =     268.382366 KinEng   =      54.759213 Temp     =     151.822985 
PotEng   =     213.623154 E_bond   =      24.777884 E_angle  =     145.449787 
E_dihed  =      37.788584 E_impro  =       0.768341 E_vdwl   =       7.682622 
E_coul   =      13.346247 E_long   =     -16.190312 Press    =     232.481387
------------ Step           5500 ----- CPU =     1.381478 (sec) -------------
TotEng   =     270.165454 KinEng   =      62.472558 Temp     =     173.208665 
PotEng   =     207.692896 E_bond   =      24.519765 E_angle  =     141.535491 
E_dihed  =      37.447430 E_impro  =       1.263345 E_vdwl   =       5.323081 
E_coul   =      13.794348 E_long   =     -16.190563 Press    =    -614.892539
------------ Step           5600 ----- CPU =     1.408372 (sec) -------------
TotEng   =     271.887262 KinEng   =      56.270621 Temp     =     156.013447 
PotEng   =     215.616642 E_bond   =      25.683409 E_angle  =     147.017004 
E_dihed  =      46.798874 E_impro  =       1.029316 E_vdwl   =      -2.168687 
E_coul   =      13.446004 E_long   =     -16.189279 Press    =    -906.808650
------------ Step           5700 ----- CPU =     1.434092 (sec) -------------
TotEng   =     275.448875 KinEng   =      63.858329 Temp     =     177.050793 
PotEng   =     211.590546 E_bond   =      27.028160 E_angle  =     139.037606 
E_dihed  =      44.375726 E_impro  =       0.867730 E_vdwl   =       2.841285 
E_coul   =      13.629386 E_long   =     -16.189345 Press    =    -656.440433
------------ Step           5800 ----- CPU =     1.459755 (sec) -------------
TotEng   =     277.182064 KinEng   =      69.777179 Temp     =     193.461137 
PotEng   =     207.404885 E_bond   =      22.391408 E_angle  =     145.335865 
E_dihed  =      37.080277 E_impro  =       1.039612 E_vdwl   =       4.441331 
E_coul   =      13.309818 E_long   =     -16.193425 Press    =     472.251307
------------ Step           5900 ----- CPU =     1.485129 (sec) -------------
TotEng   =     274.589459 KinEng   =      72.212811 Temp     =     200.214063 
PotEng   =     202.376648 E_bond   =      20.417295 E_angle  =     145.947985 
E_dihed  =      37.933986 E_impro  =       0.641448 E_vdwl   =       0.531573 
E_coul   =      13.097175 E_long   =     -16.192815 Press    =     306.180055
------------ Step           6000 ----- CPU =     1.511171 (sec) -------------
TotEng   =     269.968686 KinEng   =      61.545605 Temp     =     170.638636 
PotEng   =     208.423082 E_bond   =      20.644637 E_angle  =     146.119176 
E_dihed  =      41.400222 E_impro  =       0.989276 E_vdwl   =       2.214254 
E_coul   =      13.248123 E_long   =     -16.192605 Press    =    -175.614943
------------ Step           6100 ----- CPU =     1.536948 (sec) -------------
TotEng   =     268.740831 KinEng   =      55.979582 Temp     =     155.206527 
PotEng   =     212.761249 E_bond   =      21.047761 E_angle  =     153.015063 
E_dihed  =      44.202028 E_impro  =       1.678267 E_vdwl   =      -4.457405 
E_coul   =      13.467590 E_long   =     -16.192055 Press    =     309.551931
------------ Step           6200 ----- CPU =     1.562517 (sec) -------------
TotEng   =     270.841998 KinEng   =      56.362228 Temp     =     156.267433 
PotEng   =     214.479770 E_bond   =      19.441009 E_angle  =     166.304630 
E_dihed  =      41.678076 E_impro  =       0.748087 E_vdwl   =     -10.831453 
E_coul   =      13.331087 E_long   =     -16.191666 Press    =     775.328927
------------ Step           6300 ----- CPU =     1.586821 (sec) -------------
TotEng   =     274.946287 KinEng   =      60.127353 Temp     =     166.706455 
PotEng   =     214.818934 E_bond   =      18.254132 E_angle  =     166.631479 
E_dihed  =      36.478988 E_impro  =       1.269858 E_vdwl   =      -5.052535 
E_coul   =      13.428560 E_long   =     -16.191548 Press    =     384.299791
------------ Step           6400 ----- CPU =     1.612537 (sec) -------------
TotEng   =     279.749760 KinEng   =      66.173051 Temp     =     183.468489 
PotEng   =     213.576709 E_bond   =      23.899810 E_angle  =     168.036604 
E_dihed  =      35.199240 E_impro  =       1.915061 E_vdwl   =     -12.846091 
E_coul   =      13.562078 E_long   =     -16.189992 Press    =   -1063.801023
------------ Step           6500 ----- CPU =     1.639456 (sec) -------------
TotEng   =     283.538507 KinEng   =      76.303608 Temp     =     211.556027 
PotEng   =     207.234899 E_bond   =      25.732288 E_angle  =     158.182033 
E_dihed  =      33.359787 E_impro  =       1.056470 E_vdwl   =      -8.586464 
E_coul   =      13.682533 E_long   =     -16.191749 Press    =   -1332.821923
------------ Step           6600 ----- CPU =     1.665343 (sec) -------------
TotEng   =     283.658491 KinEng   =      74.371447 Temp     =     206.199001 
PotEng   =     209.287045 E_bond   =      23.207796 E_angle  =     152.078062 
E_dihed  =      32.812401 E_impro  =       0.617145 E_vdwl   =       3.072180 
E_coul   =      13.690472 E_long   =     -16.191011 Press    =     551.441989
------------ Step           6700 ----- CPU =     1.691254 (sec) -------------
TotEng   =     281.474937 KinEng   =      70.265613 Temp     =     194.815348 
PotEng   =     211.209324 E_bond   =      23.768174 E_angle  =     160.380744 
E_dihed  =      38.866257 E_impro  =       1.121358 E_vdwl   =     -10.758805 
E_coul   =      14.021583 E_long   =     -16.189988 Press    =     -53.880371
------------ Step           6800 ----- CPU =     1.717425 (sec) -------------
TotEng   =     278.341261 KinEng   =      81.578194 Temp     =     226.180110 
PotEng   =     196.763067 E_bond   =      19.150446 E_angle  =     154.578241 
E_dihed  =      35.196703 E_impro  =       0.593185 E_vdwl   =     -10.016697 
E_coul   =      13.449615 E_long   =     -16.188425 Press    =      41.458972
------------ Step           6900 ----- CPU =     1.744526 (sec) -------------
TotEng   =     272.360342 KinEng   =      68.344416 Temp     =     189.488722 
PotEng   =     204.015925 E_bond   =      21.849046 E_angle  =     163.318390 
E_dihed  =      38.230970 E_impro  =       1.186517 E_vdwl   =     -17.422456 
E_coul   =      13.043278 E_long   =     -16.189817 Press    =    -268.944899
------------ Step           7000 ----- CPU =     1.770325 (sec) -------------
TotEng   =     270.005994 KinEng   =      70.760566 Temp     =     196.187631 
PotEng   =     199.245428 E_bond   =      16.951036 E_angle  =     154.309498 
E_dihed  =      37.755122 E_impro  =       1.238297 E_vdwl   =      -7.996018 
E_coul   =      13.178852 E_long   =     -16.191359 Press    =    1078.600238
------------ Step           7100 ----- CPU =     1.794625 (sec) -------------
TotEng   =     270.432601 KinEng   =      73.112262 Temp     =     202.707842 
PotEng   =     197.320339 E_bond   =      21.536763 E_angle  =     146.383688 
E_dihed  =      39.906060 E_impro  =       0.693116 E_vdwl   =      -8.568888 
E_coul   =      13.559526 E_long   =     -16.189927 Press    =    -594.022158
------------ Step           7200 ----- CPU =     1.820111 (sec) -------------
TotEng   =     273.820444 KinEng   =      77.186339 Temp     =     214.003447 
PotEng   =     196.634105 E_bond   =      21.186473 E_angle  =     151.647513 
E_dihed  =      40.416042 E_impro  =       1.550813 E_vdwl   =     -15.110591 
E_coul   =      13.136164 E_long   =     -16.192310 Press    =     279.904633
------------ Step           7300 ----- CPU =     1.845533 (sec) -------------
TotEng   =     283.390466 KinEng   =      76.661772 Temp     =     212.549057 
PotEng   =     206.728694 E_bond   =      20.511844 E_angle  =     162.626689 
E_dihed  =      43.055854 E_impro  =       0.925221 E_vdwl   =     -17.154781 
E_coul   =      12.958841 E_long   =     -16.194974 Press    =     831.208033
------------ Step           7400 ----- CPU =     1.869635 (sec) -------------
TotEng   =     292.430530 KinEng   =      84.322465 Temp     =     233.788758 
PotEng   =     208.108065 E_bond   =      23.639535 E_angle  =     153.228327 
E_dihed  =      42.326761 E_impro  =       0.717338 E_vdwl   =      -8.419609 
E_coul   =      12.812059 E_long   =     -16.196344 Press    =     132.363810
------------ Step           7500 ----- CPU =     1.894749 (sec) -------------
TotEng   =     294.935913 KinEng   =      82.649031 Temp     =     229.149069 
PotEng   =     212.286882 E_bond   =      22.519446 E_angle  =     152.675462 
E_dihed  =      40.128080 E_impro  =       1.553099 E_vdwl   =      -1.383561 
E_coul   =      12.990979 E_long   =     -16.196624 Press    =     616.909121
------------ Step           7600 ----- CPU =     1.920707 (sec) -------------
TotEng   =     295.583001 KinEng   =      88.078337 Temp     =     244.202122 
PotEng   =     207.504665 E_bond   =      19.682032 E_angle  =     148.631332 
E_dihed  =      41.709375 E_impro  =       0.400039 E_vdwl   =      -0.038381 
E_coul   =      13.319080 E_long   =     -16.198813 Press    =    1288.000234
------------ Step           7700 ----- CPU =      1.94573 (sec) -------------
TotEng   =     292.667406 KinEng   =      86.268006 Temp     =     239.182878 
PotEng   =     206.399400 E_bond   =      25.330080 E_angle  =     146.881564 
E_dihed  =      55.506661 E_impro  =       0.757792 E_vdwl   =     -18.859516 
E_coul   =      12.981395 E_long   =     -16.198577 Press    =   -1504.894274
------------ Step           7800 ----- CPU =     1.970743 (sec) -------------
TotEng   =     288.858877 KinEng   =      80.588052 Temp     =     223.434887 
PotEng   =     208.270825 E_bond   =      25.768085 E_angle  =     166.357741 
E_dihed  =      49.801547 E_impro  =       1.286324 E_vdwl   =     -32.268809 
E_coul   =      13.522541 E_long   =     -16.196605 Press    =   -1193.035368
------------ Step           7900 ----- CPU =     1.995755 (sec) -------------
TotEng   =     285.712051 KinEng   =      84.137075 Temp     =     233.274753 
PotEng   =     201.574976 E_bond   =      21.673498 E_angle  =     150.909028 
E_dihed  =      47.540229 E_impro  =       0.886412 E_vdwl   =     -16.494796 
E_coul   =      13.256236 E_long   =     -16.195631 Press    =     151.821863
------------ Step           8000 ----- CPU =     2.021011 (sec) -------------
TotEng   =     283.410233 KinEng   =      77.308051 Temp     =     214.340902 
PotEng   =     206.102182 E_bond   =      18.429275 E_angle  =     160.996652 
E_dihed  =      47.650345 E_impro  =       1.135145 E_vdwl   =     -19.409872 
E_coul   =      13.495446 E_long   =     -16.194808 Press    =    -651.992854
------------ Step           8100 ----- CPU =     2.045869 (sec) -------------
TotEng   =     284.583707 KinEng   =      81.312475 Temp     =     225.443391 
PotEng   =     203.271231 E_bond   =      18.846720 E_angle  =     158.958369 
E_dihed  =      48.019368 E_impro  =       1.550187 E_vdwl   =     -21.042995 
E_coul   =      13.135100 E_long   =     -16.195518 Press    =    -501.320234
------------ Step           8200 ----- CPU =     2.070423 (sec) -------------
TotEng   =     292.302942 KinEng   =      93.505416 Temp     =     259.249003 
PotEng   =     198.797527 E_bond   =      21.214333 E_angle  =     154.127947 
E_dihed  =      46.428252 E_impro  =       0.705654 E_vdwl   =     -20.520178 
E_coul   =      13.036702 E_long   =     -16.195183 Press    =    -427.390507
------------ Step           8300 ----- CPU =     2.095074 (sec) -------------
TotEng   =     300.244940 KinEng   =     103.384915 Temp     =     286.640468 
PotEng   =     196.860025 E_bond   =      21.580057 E_angle  =     155.485050 
E_dihed  =      53.374015 E_impro  =       1.302904 E_vdwl   =     -31.500441 
E_coul   =      12.815812 E_long   =     -16.197372 Press    =     756.825750
------------ Step           8400 ----- CPU =     2.120118 (sec) -------------
TotEng   =     303.264349 KinEng   =     101.763626 Temp     =     282.145352 
PotEng   =     201.500723 E_bond   =      21.512777 E_angle  =     140.201432 
E_dihed  =      58.112648 E_impro  =       1.782940 E_vdwl   =     -16.906778 
E_coul   =      12.996007 E_long   =     -16.198303 Press    =    -681.731249
------------ Step           8500 ----- CPU =     2.145186 (sec) -------------
TotEng   =     302.408093 KinEng   =      93.198178 Temp     =     258.397168 
PotEng   =     209.209915 E_bond   =      18.184983 E_angle  =     155.579398 
E_dihed  =      51.867058 E_impro  =       1.222964 E_vdwl   =     -14.554702 
E_coul   =      13.107878 E_long   =     -16.197665 Press    =     793.903847
------------ Step           8600 ----- CPU =     2.170189 (sec) -------------
TotEng   =     298.561632 KinEng   =     102.154235 Temp     =     283.228338 
PotEng   =     196.407397 E_bond   =      16.963898 E_angle  =     155.260365 
E_dihed  =      41.655568 E_impro  =       3.172624 E_vdwl   =     -17.706431 
E_coul   =      13.260290 E_long   =     -16.198917 Press    =    1630.854072
------------ Step           8700 ----- CPU =     2.195218 (sec) -------------
TotEng   =     285.636169 KinEng   =      95.844152 Temp     =     265.733280 
PotEng   =     189.792017 E_bond   =      26.180624 E_angle  =     150.987355 
E_dihed  =      37.146801 E_impro  =       1.640979 E_vdwl   =     -23.290193 
E_coul   =      13.324409 E_long   =     -16.197958 Press    =   -1413.808353
------------ Step           8800 ----- CPU =     2.220588 (sec) -------------
TotEng   =     275.826342 KinEng   =      83.547229 Temp     =     231.639371 
PotEng   =     192.279113 E_bond   =      24.803940 E_angle  =     157.550213 
E_dihed  =      38.158802 E_impro  =       1.713645 E_vdwl   =     -26.891652 
E_coul   =      13.138177 E_long   =     -16.194013 Press    =   -1255.174752
------------ Step           8900 ----- CPU =     2.245904 (sec) -------------
TotEng   =     274.527767 KinEng   =      84.300238 Temp     =     233.727131 
PotEng   =     190.227529 E_bond   =      20.931713 E_angle  =     158.728339 
E_dihed  =      33.444712 E_impro  =       1.778685 E_vdwl   =     -21.816875 
E_coul   =      13.354174 E_long   =     -16.193219 Press    =    -785.587884
------------ Step           9000 ----- CPU =     2.272178 (sec) -------------
TotEng   =     278.170299 KinEng   =      86.806111 Temp     =     240.674806 
PotEng   =     191.364188 E_bond   =      15.978722 E_angle  =     157.650656 
E_dihed  =      38.240325 E_impro  =       2.187360 E_vdwl   =     -19.979325 
E_coul   =      13.473597 E_long   =     -16.187146 Press    =     850.794233
------------ Step           9100 ----- CPU =     2.297235 (sec) -------------
TotEng   =     285.753779 KinEng   =      89.156887 Temp     =     247.192462 
PotEng   =     196.596892 E_bond   =      19.818387 E_angle  =     158.684759 
E_dihed  =      40.502788 E_impro  =       2.069966 E_vdwl   =     -21.807783 
E_coul   =      13.511492 E_long   =     -16.182717 Press    =    -202.133009
------------ Step           9200 ----- CPU =     2.323137 (sec) -------------
TotEng   =     294.838791 KinEng   =     103.654968 Temp     =     287.389203 
PotEng   =     191.183824 E_bond   =      27.106255 E_angle  =     154.999901 
E_dihed  =      36.939171 E_impro  =       1.191264 E_vdwl   =     -26.489122 
E_coul   =      13.623568 E_long   =     -16.187213 Press    =   -1409.427789
------------ Step           9300 ----- CPU =     2.349145 (sec) -------------
TotEng   =     300.841279 KinEng   =      93.517901 Temp     =     259.283619 
PotEng   =     207.323377 E_bond   =      23.046771 E_angle  =     175.819828 
E_dihed  =      36.219360 E_impro  =       1.471070 E_vdwl   =     -26.178079 
E_coul   =      13.136876 E_long   =     -16.192449 Press    =     638.191689
------------ Step           9400 ----- CPU =     2.373931 (sec) -------------
TotEng   =     307.167049 KinEng   =      98.826925 Temp     =     274.003184 
PotEng   =     208.340124 E_bond   =      17.248211 E_angle  =     174.457789 
E_dihed  =      36.544184 E_impro  =       0.300638 E_vdwl   =     -17.538147 
E_coul   =      13.517886 E_long   =     -16.190438 Press    =    1588.344015
------------ Step           9500 ----- CPU =     2.398637 (sec) -------------
TotEng   =     314.392038 KinEng   =     111.567467 Temp     =     309.327052 
PotEng   =     202.824571 E_bond   =      19.793612 E_angle  =     157.856235 
E_dihed  =      37.653699 E_impro  =       1.412110 E_vdwl   =     -11.607219 
E_coul   =      13.906061 E_long   =     -16.189928 Press    =     610.874828
------------ Step           9600 ----- CPU =     2.424239 (sec) -------------
TotEng   =     316.653432 KinEng   =     115.447016 Temp     =     320.083317 
PotEng   =     201.206416 E_bond   =      36.748132 E_angle  =     160.630466 
E_dihed  =      39.165218 E_impro  =       1.618549 E_vdwl   =     -34.593161 
E_coul   =      13.825769 E_long   =     -16.188557 Press    =   -2743.155465
------------ Step           9700 ----- CPU =     2.449691 (sec) -------------
TotEng   =     313.497539 KinEng   =     105.902998 Temp     =     293.621993 
PotEng   =     207.594541 E_bond   =      28.058725 E_angle  =     157.883050 
E_dihed  =      44.208194 E_impro  =       3.940301 E_vdwl   =     -23.944429 
E_coul   =      13.638437 E_long   =     -16.189737 Press    =    -144.492901
------------ Step           9800 ----- CPU =     2.474207 (sec) -------------
TotEng   =     309.851653 KinEng   =      92.958498 Temp     =     257.732643 
PotEng   =     216.893154 E_bond   =      17.634675 E_angle  =     163.648529 
E_dihed  =      41.818406 E_impro  =       3.252862 E_vdwl   =      -6.634317 
E_coul   =      13.363012 E_long   =     -16.190012 Press    =    2371.216213
------------ Step           9900 ----- CPU =     2.498369 (sec) -------------
TotEng   =     310.697865 KinEng   =      88.608763 Temp     =     245.672759 
PotEng   =     222.089102 E_bond   =      25.987019 E_angle  =     158.648867 
E_dihed  =      48.334904 E_impro  =       2.964125 E_vdwl   =     -10.836086 
E_coul   =      13.180091 E_long   =     -16.189820 Press    =      27.860885
------------ Step          10000 ----- CPU =     2.522628 (sec) -------------
TotEng   =     320.628447 KinEng   =     111.888654 Temp     =     310.217561 
PotEng   =     208.739792 E_bond   =      23.828554 E_angle  =     167.695572 
E_dihed  =      44.914115 E_impro  =       3.568078 E_vdwl   =     -28.358039 
E_coul   =      13.281861 E_long   =     -16.190350 Press    =     -15.391187
Loop time of 2.52268 on 1 procs for 10000 steps with 122 atoms

Performance: 171.246 ns/day, 0.140 hours/ns, 3964.032 timesteps/s, 483.612 katom-step/s
99.5% CPU use with 1 MPI tasks x 1 OpenMP threads

MPI task timing breakdown:
Section |  min time  |  avg time  |  max time  |%varavg| %total
---------------------------------------------------------------
Pair    | 1.8998     | 1.8998     | 1.8998     |   0.0 | 75.31
Bond    | 0.30551    | 0.30551    | 0.30551    |   0.0 | 12.11
Kspace  | 0.13758    | 0.13758    | 0.13758    |   0.0 |  5.45
Neigh   | 0.08005    | 0.08005    | 0.08005    |   0.0 |  3.17
Comm    | 0.067533   | 0.067533   | 0.067533   |   0.0 |  2.68
Output  | 0.0037987  | 0.0037987  | 0.0037987  |   0.0 |  0.15
Modify  | 0.019918   | 0.019918   | 0.019918   |   0.0 |  0.79
Other   |            | 0.008455   |            |       |  0.34

Nlocal:            122 ave         122 max         122 min
Histogram: 1 0 0 0 0 0 0 0 0 0
Nghost:           1671 ave        1671 max        1671 min
Histogram: 1 0 0 0 0 0 0 0 0 0
Neighs:          14488 ave       14488 max       14488 min
Histogram: 1 0 0 0 0 0 0 0 0 0

Total # of neighbors = 14488
Ave neighs/atom = 118.7541
Ave special neighs/atom = 10.967213
Neighbor list builds = 90
Dangerous builds = 0
unfix                4
undump               1

thermo               10
fix                  4 all nvt temp 300 300 100
fix                  freeze oleic_acid setforce 0.0 0.0 0.0
fix                  1 all gcmc 1 0 100 0 1234567 300.0 0 5 mol 69 full_energy mcmoves 0 1 1
dump                 2 all custom 10 ${sname}.simple_mc.lammpstrj id type xu yu zu vx vy vz
dump                 2 all custom 10 simplified_mc.simple_mc.lammpstrj id type xu yu zu vx vy vz
run                  100000
Ewald initialization ...
  using 12-bit tables for long-range coulomb (src/kspace.cpp:342)
  G vector (1/distance) = 0.091315817
  estimated absolute RMS force accuracy = 0.034067589
  estimated relative force accuracy = 0.00010259353
  KSpace vectors: actual max1d max3d = 3 1 13
                  kxmax kymax kzmax  = 1 1 1
Generated 28 of 28 mixed pair_coeff terms from geometric mixing rule
0 atoms in group FixGCMC:gcmc_exclusion_group:1
0 atoms in group FixGCMC:rotation_gas_atoms:1
WARNING: Fix gcmc is being applied to the default group all (src/MC/fix_gcmc.cpp:672)
WARNING: Neighbor exclusions used with KSpace solver may give inconsistent Coulombic energies (src/neighbor.cpp:639)
Per MPI rank memory allocation (min/avg/max) = 32.92 | 32.92 | 32.92 Mbytes
------------ Step          10000 ----- CPU =            0 (sec) -------------
TotEng   =     320.628447 KinEng   =     111.888654 Temp     =     310.217561 
PotEng   =     208.739792 E_bond   =      23.828554 E_angle  =     167.695572 
E_dihed  =      44.914115 E_impro  =       3.568078 E_vdwl   =     -28.358039 
E_coul   =      13.281861 E_long   =     -16.190350 Press    =     -15.391187
------------ Step          10010 ----- CPU =     1.772009 (sec) -------------
TotEng   =     313.995836 KinEng   =     114.010800 Temp     =     316.101328 
PotEng   =     199.985036 E_bond   =      23.730995 E_angle  =     167.896657 
E_dihed  =      43.449531 E_impro  =       3.575884 E_vdwl   =     -35.661369 
E_coul   =      13.182432 E_long   =     -16.189094 Press    =    -631.458183
------------ Step          10020 ----- CPU =     3.483468 (sec) -------------
TotEng   =     315.752314 KinEng   =     113.518040 Temp     =     314.735124 
PotEng   =     202.234274 E_bond   =      24.687111 E_angle  =     170.697987 
E_dihed  =      40.981622 E_impro  =       3.251994 E_vdwl   =     -34.462526 
E_coul   =      13.264895 E_long   =     -16.186810 Press    =    -784.007924
------------ Step          10030 ----- CPU =     5.218573 (sec) -------------
TotEng   =     317.285710 KinEng   =     110.395561 Temp     =     306.077876 
PotEng   =     206.890149 E_bond   =      25.769435 E_angle  =     174.343775 
E_dihed  =      38.626985 E_impro  =       2.704029 E_vdwl   =     -31.692935 
E_coul   =      13.327704 E_long   =     -16.188844 Press    =    -630.463730
------------ Step          10040 ----- CPU =     6.964819 (sec) -------------
TotEng   =     316.381378 KinEng   =     106.030692 Temp     =     293.976033 
PotEng   =     210.350686 E_bond   =      26.090412 E_angle  =     178.368761 
E_dihed  =      36.932495 E_impro  =       2.469672 E_vdwl   =     -30.402813 
E_coul   =      13.077979 E_long   =     -16.185821 Press    =    -309.818107
------------ Step          10050 ----- CPU =     8.696159 (sec) -------------
TotEng   =     314.207494 KinEng   =     104.080212 Temp     =     288.568217 
PotEng   =     210.127282 E_bond   =      24.971793 E_angle  =     182.353607 
E_dihed  =      35.516061 E_impro  =       2.415068 E_vdwl   =     -31.998822 
E_coul   =      13.057518 E_long   =     -16.187945 Press    =     -76.420685
------------ Step          10060 ----- CPU =     10.44712 (sec) -------------
TotEng   =     316.463147 KinEng   =     102.429647 Temp     =     283.991932 
PotEng   =     214.033500 E_bond   =      25.756726 E_angle  =     186.332964 
E_dihed  =      33.725550 E_impro  =       2.053580 E_vdwl   =     -30.949471 
E_coul   =      13.304414 E_long   =     -16.190264 Press    =     377.106453
------------ Step          10070 ----- CPU =     12.22015 (sec) -------------
TotEng   =     313.728235 KinEng   =     103.918714 Temp     =     288.120455 
PotEng   =     209.809520 E_bond   =      24.495620 E_angle  =     188.494182 
E_dihed  =      32.175058 E_impro  =       1.788624 E_vdwl   =     -34.260716 
E_coul   =      13.306056 E_long   =     -16.189302 Press    =     317.162853
------------ Step          10080 ----- CPU =     13.99273 (sec) -------------
TotEng   =     315.362314 KinEng   =     105.287806 Temp     =     291.916338 
PotEng   =     210.074509 E_bond   =      23.292553 E_angle  =     187.738430 
E_dihed  =      31.513454 E_impro  =       1.994536 E_vdwl   =     -31.332677 
E_coul   =      13.057278 E_long   =     -16.189065 Press    =     424.744482
------------ Step          10090 ----- CPU =     15.77419 (sec) -------------
TotEng   =     315.282159 KinEng   =     105.255519 Temp     =     291.826822 
PotEng   =     210.026640 E_bond   =      22.629870 E_angle  =     186.125225 
E_dihed  =      31.687219 E_impro  =       2.396728 E_vdwl   =     -29.589031 
E_coul   =      12.968387 E_long   =     -16.191757 Press    =     729.604173
------------ Step          10100 ----- CPU =     17.66692 (sec) -------------
TotEng   =     315.906966 KinEng   =     105.077683 Temp     =     291.333762 
PotEng   =     210.829282 E_bond   =      22.929938 E_angle  =     185.291569 
E_dihed  =      32.559472 E_impro  =       2.638920 E_vdwl   =     -29.770815 
E_coul   =      13.369226 E_long   =     -16.189027 Press    =     611.691847
------------ Step          10110 ----- CPU =     19.44491 (sec) -------------
TotEng   =     316.788274 KinEng   =     104.211638 Temp     =     288.932602 
PotEng   =     212.576636 E_bond   =      24.658138 E_angle  =     185.740378 
E_dihed  =      33.282770 E_impro  =       2.387708 E_vdwl   =     -31.144719 
E_coul   =      13.843342 E_long   =     -16.190982 Press    =    1210.769951
------------ Step          10120 ----- CPU =     21.21443 (sec) -------------
TotEng   =     312.304466 KinEng   =     102.260362 Temp     =     283.522580 
PotEng   =     210.044104 E_bond   =      25.964291 E_angle  =     187.134790 
E_dihed  =      34.183522 E_impro  =       1.993391 E_vdwl   =     -36.519015 
E_coul   =      13.475149 E_long   =     -16.188024 Press    =    1010.808190
------------ Step          10130 ----- CPU =     22.98491 (sec) -------------
TotEng   =     311.634618 KinEng   =     103.760640 Temp     =     287.682187 
PotEng   =     207.873978 E_bond   =      23.714584 E_angle  =     188.087837 
E_dihed  =      35.529005 E_impro  =       1.520531 E_vdwl   =     -38.193864 
E_coul   =      13.402751 E_long   =     -16.186866 Press    =    1874.656519
------------ Step          10140 ----- CPU =     24.74011 (sec) -------------
TotEng   =     312.484646 KinEng   =     103.829796 Temp     =     287.873925 
PotEng   =     208.654850 E_bond   =      21.437437 E_angle  =     188.645553 
E_dihed  =      37.791348 E_impro  =       1.328703 E_vdwl   =     -37.660330 
E_coul   =      13.300085 E_long   =     -16.187946 Press    =    1156.846818
------------ Step          10150 ----- CPU =     26.54027 (sec) -------------
TotEng   =     314.570336 KinEng   =     105.846786 Temp     =     293.466143 
PotEng   =     208.723550 E_bond   =      21.258653 E_angle  =     185.028200 
E_dihed  =      39.957172 E_impro  =       1.512270 E_vdwl   =     -36.267362 
E_coul   =      13.421529 E_long   =     -16.186913 Press    =    1097.927401
------------ Step          10160 ----- CPU =     28.29191 (sec) -------------
TotEng   =     315.110055 KinEng   =     103.916175 Temp     =     288.113415 
PotEng   =     211.193880 E_bond   =      21.814291 E_angle  =     185.136387 
E_dihed  =      41.310874 E_impro  =       1.655827 E_vdwl   =     -35.953889 
E_coul   =      13.419443 E_long   =     -16.189053 Press    =     679.936533
------------ Step          10170 ----- CPU =     30.03823 (sec) -------------
TotEng   =     312.444330 KinEng   =     102.624764 Temp     =     284.532906 
PotEng   =     209.819566 E_bond   =      20.383346 E_angle  =     187.836295 
E_dihed  =      42.215545 E_impro  =       1.631075 E_vdwl   =     -39.441427 
E_coul   =      13.383025 E_long   =     -16.188293 Press    =     293.014888
------------ Step          10180 ----- CPU =     31.77331 (sec) -------------
TotEng   =     313.950626 KinEng   =     103.583153 Temp     =     287.190092 
PotEng   =     210.367473 E_bond   =      20.404593 E_angle  =     188.556379 
E_dihed  =      42.371906 E_impro  =       1.460186 E_vdwl   =     -39.490018 
E_coul   =      13.252223 E_long   =     -16.187796 Press    =     142.785111
------------ Step          10190 ----- CPU =     33.50831 (sec) -------------
TotEng   =     315.143819 KinEng   =     106.946381 Temp     =     296.514832 
PotEng   =     208.197438 E_bond   =      22.027022 E_angle  =     186.123585 
E_dihed  =      41.723474 E_impro  =       1.564471 E_vdwl   =     -40.314361 
E_coul   =      13.260652 E_long   =     -16.187405 Press    =    -738.488013
------------ Step          10200 ----- CPU =     35.24073 (sec) -------------
TotEng   =     314.880500 KinEng   =     107.785046 Temp     =     298.840076 
PotEng   =     207.095454 E_bond   =      26.488307 E_angle  =     183.924196 
E_dihed  =      40.590569 E_impro  =       1.858245 E_vdwl   =     -42.528143 
E_coul   =      12.948425 E_long   =     -16.186145 Press    =   -1180.754668
------------ Step          10210 ----- CPU =     36.97368 (sec) -------------
TotEng   =     317.117958 KinEng   =     105.974740 Temp     =     293.820901 
PotEng   =     211.143218 E_bond   =      31.674842 E_angle  =     183.184238 
E_dihed  =      39.260322 E_impro  =       2.055449 E_vdwl   =     -41.784852 
E_coul   =      12.939106 E_long   =     -16.185888 Press    =   -2428.982928
------------ Step          10220 ----- CPU =     38.72288 (sec) -------------
TotEng   =     317.070306 KinEng   =     104.579066 Temp     =     289.951316 
PotEng   =     212.491241 E_bond   =      35.466126 E_angle  =     182.859047 
E_dihed  =      37.924036 E_impro  =       2.153539 E_vdwl   =     -42.898285 
E_coul   =      13.171953 E_long   =     -16.185177 Press    =   -2614.304394
------------ Step          10230 ----- CPU =     40.47586 (sec) -------------
TotEng   =     316.174759 KinEng   =     103.794484 Temp     =     287.776021 
PotEng   =     212.380274 E_bond   =      39.041752 E_angle  =     180.646491 
E_dihed  =      37.447807 E_impro  =       2.380089 E_vdwl   =     -44.054360 
E_coul   =      13.103878 E_long   =     -16.185383 Press    =   -2907.180666
------------ Step          10240 ----- CPU =     42.24045 (sec) -------------
TotEng   =     315.361506 KinEng   =     105.861488 Temp     =     293.506903 
PotEng   =     209.500018 E_bond   =      41.027747 E_angle  =     176.525710 
E_dihed  =      37.240352 E_impro  =       2.401555 E_vdwl   =     -45.024138 
E_coul   =      13.516419 E_long   =     -16.187628 Press    =   -2460.644993
------------ Step          10250 ----- CPU =     43.93755 (sec) -------------
TotEng   =     316.472305 KinEng   =     111.244406 Temp     =     308.431345 
PotEng   =     205.227899 E_bond   =      39.160939 E_angle  =     172.525715 
E_dihed  =      37.494310 E_impro  =       2.425289 E_vdwl   =     -43.787385 
E_coul   =      13.598440 E_long   =     -16.189408 Press    =   -1713.985918
------------ Step          10260 ----- CPU =     45.64046 (sec) -------------
TotEng   =     319.001663 KinEng   =     114.157630 Temp     =     316.508424 
PotEng   =     204.844033 E_bond   =      34.900303 E_angle  =     172.495191 
E_dihed  =      37.669534 E_impro  =       2.426566 E_vdwl   =     -39.440165 
E_coul   =      12.983458 E_long   =     -16.190853 Press    =   -1674.877740
------------ Step          10270 ----- CPU =     47.35979 (sec) -------------
TotEng   =     319.827286 KinEng   =     115.056507 Temp     =     319.000610 
PotEng   =     204.770779 E_bond   =      33.172699 E_angle  =     172.083528 
E_dihed  =      36.865990 E_impro  =       2.047380 E_vdwl   =     -36.254053 
E_coul   =      13.045654 E_long   =     -16.190419 Press    =   -1242.202058
------------ Step          10280 ----- CPU =     49.10484 (sec) -------------
TotEng   =     319.538877 KinEng   =     115.314768 Temp     =     319.716653 
PotEng   =     204.224109 E_bond   =      32.931151 E_angle  =     171.298081 
E_dihed  =      35.397694 E_impro  =       1.263692 E_vdwl   =     -33.725628 
E_coul   =      13.250425 E_long   =     -16.191306 Press    =   -1445.149899
------------ Step          10290 ----- CPU =      50.8698 (sec) -------------
TotEng   =     319.366533 KinEng   =     114.232405 Temp     =     316.715741 
PotEng   =     205.134128 E_bond   =      33.084336 E_angle  =     170.954001 
E_dihed  =      34.596836 E_impro  =       0.900881 E_vdwl   =     -31.240818 
E_coul   =      13.029713 E_long   =     -16.190823 Press    =   -1146.004735
------------ Step          10300 ----- CPU =        52.61 (sec) -------------
TotEng   =     320.338961 KinEng   =     110.659394 Temp     =     306.809367 
PotEng   =     209.679567 E_bond   =      33.831663 E_angle  =     170.275113 
E_dihed  =      34.287332 E_impro  =       1.156994 E_vdwl   =     -26.651137 
E_coul   =      12.969982 E_long   =     -16.190379 Press    =    -809.201513
------------ Step          10310 ----- CPU =     54.34936 (sec) -------------
TotEng   =     320.496264 KinEng   =     109.699081 Temp     =     304.146845 
PotEng   =     210.797184 E_bond   =      32.613637 E_angle  =     170.332696 
E_dihed  =      34.054832 E_impro  =       1.476252 E_vdwl   =     -24.193492 
E_coul   =      12.703671 E_long   =     -16.190413 Press    =     524.946447
------------ Step          10320 ----- CPU =     56.07968 (sec) -------------
TotEng   =     321.722943 KinEng   =     112.682270 Temp     =     312.417905 
PotEng   =     209.040673 E_bond   =      26.841485 E_angle  =     171.903048 
E_dihed  =      34.452220 E_impro  =       1.998039 E_vdwl   =     -23.091270 
E_coul   =      13.130433 E_long   =     -16.193282 Press    =    1184.773684
------------ Step          10330 ----- CPU =      57.8033 (sec) -------------
TotEng   =     322.199410 KinEng   =     115.779054 Temp     =     321.003912 
PotEng   =     206.420356 E_bond   =      23.977046 E_angle  =     172.639527 
E_dihed  =      34.397796 E_impro  =       2.225329 E_vdwl   =     -23.437643 
E_coul   =      12.811543 E_long   =     -16.193242 Press    =    1426.347129
------------ Step          10340 ----- CPU =     59.50906 (sec) -------------
TotEng   =     325.732621 KinEng   =     121.180551 Temp     =     335.979864 
PotEng   =     204.552071 E_bond   =      23.588352 E_angle  =     169.851314 
E_dihed  =      34.613713 E_impro  =       2.573443 E_vdwl   =     -22.881718 
E_coul   =      12.994682 E_long   =     -16.187715 Press    =    1056.615016
------------ Step          10350 ----- CPU =     61.19591 (sec) -------------
TotEng   =     326.704902 KinEng   =     119.440338 Temp     =     331.155026 
PotEng   =     207.264564 E_bond   =      26.620319 E_angle  =     171.205527 
E_dihed  =      35.570339 E_impro  =       2.930748 E_vdwl   =     -26.236252 
E_coul   =      13.363282 E_long   =     -16.189400 Press    =    -117.460584
------------ Step          10360 ----- CPU =     62.88546 (sec) -------------
TotEng   =     326.825951 KinEng   =     120.408633 Temp     =     333.839678 
PotEng   =     206.417319 E_bond   =      25.890480 E_angle  =     173.920390 
E_dihed  =      36.084164 E_impro  =       2.793426 E_vdwl   =     -29.656339 
E_coul   =      13.577503 E_long   =     -16.192305 Press    =    -657.919142
------------ Step          10370 ----- CPU =     64.62532 (sec) -------------
TotEng   =     327.228060 KinEng   =     119.621346 Temp     =     331.656881 
PotEng   =     207.606714 E_bond   =      24.847740 E_angle  =     178.866529 
E_dihed  =      36.421697 E_impro  =       2.729813 E_vdwl   =     -32.662403 
E_coul   =      13.588937 E_long   =     -16.185601 Press    =   -1018.811403
------------ Step          10380 ----- CPU =     66.34816 (sec) -------------
TotEng   =     330.987731 KinEng   =     119.475096 Temp     =     331.251394 
PotEng   =     211.512635 E_bond   =      24.476890 E_angle  =     184.402160 
E_dihed  =      36.552637 E_impro  =       2.500755 E_vdwl   =     -33.885950 
E_coul   =      13.653695 E_long   =     -16.187551 Press    =     -61.876941
------------ Step          10390 ----- CPU =     68.02574 (sec) -------------
TotEng   =     329.439253 KinEng   =     115.640395 Temp     =     320.619471 
PotEng   =     213.798858 E_bond   =      26.073644 E_angle  =     190.290188 
E_dihed  =      37.245291 E_impro  =       2.264702 E_vdwl   =     -39.415592 
E_coul   =      13.533415 E_long   =     -16.192790 Press    =     -13.769267
------------ Step          10400 ----- CPU =     69.71139 (sec) -------------
TotEng   =     329.278847 KinEng   =     107.302421 Temp     =     297.501973 
PotEng   =     221.976425 E_bond   =      28.930408 E_angle  =     197.372895 
E_dihed  =      38.760885 E_impro  =       2.218318 E_vdwl   =     -42.577158 
E_coul   =      13.463801 E_long   =     -16.192723 Press    =     307.624187
------------ Step          10410 ----- CPU =     71.39898 (sec) -------------
TotEng   =     331.140299 KinEng   =     105.470859 Temp     =     292.423865 
PotEng   =     225.669440 E_bond   =      27.095944 E_angle  =     202.914817 
[...]
E_coul   =      13.410238 E_long   =     -16.203542 Press    =     867.667661
------------ Step         109540 ----- CPU =      17549.1 (sec) -------------
TotEng   =     303.333309 KinEng   =     112.766927 Temp     =     312.652620 
PotEng   =     190.566382 E_bond   =      49.042318 E_angle  =     180.298633 
E_dihed  =      35.613943 E_impro  =       3.021955 E_vdwl   =     -74.139881 
E_coul   =      12.931783 E_long   =     -16.202368 Press    =    -194.508405
------------ Step         109550 ----- CPU =     17551.04 (sec) -------------
TotEng   =     302.042659 KinEng   =     113.952996 Temp     =     315.941064 
PotEng   =     188.089663 E_bond   =      43.672936 E_angle  =     181.841798 
E_dihed  =      37.781400 E_impro  =       3.769870 E_vdwl   =     -75.690889 
E_coul   =      12.917172 E_long   =     -16.202624 Press    =     270.460971
------------ Step         109560 ----- CPU =     17552.97 (sec) -------------
TotEng   =     301.288460 KinEng   =     113.675196 Temp     =     315.170848 
PotEng   =     187.613264 E_bond   =      47.189752 E_angle  =     178.507531 
E_dihed  =      37.244972 E_impro  =       2.814930 E_vdwl   =     -74.706465 
E_coul   =      12.764598 E_long   =     -16.202055 Press    =   -1063.145374
------------ Step         109570 ----- CPU =     17554.96 (sec) -------------
TotEng   =     300.045213 KinEng   =     107.344509 Temp     =     297.618663 
PotEng   =     192.700704 E_bond   =      52.498411 E_angle  =     180.962081 
E_dihed  =      35.068081 E_impro  =       2.069343 E_vdwl   =     -74.709853 
E_coul   =      13.015571 E_long   =     -16.202931 Press    =    -506.733638
------------ Step         109580 ----- CPU =     17556.97 (sec) -------------
TotEng   =     299.524751 KinEng   =     116.513247 Temp     =     323.039504 
PotEng   =     183.011504 E_bond   =      46.852127 E_angle  =     177.579212 
E_dihed  =      36.447660 E_impro  =       3.603691 E_vdwl   =     -78.285463 
E_coul   =      13.016726 E_long   =     -16.202450 Press    =    -156.305177
------------ Step         109590 ----- CPU =     17558.91 (sec) -------------
TotEng   =     302.229921 KinEng   =     114.701851 Temp     =     318.017306 
PotEng   =     187.528070 E_bond   =      40.093338 E_angle  =     185.156038 
E_dihed  =      37.018079 E_impro  =       4.683802 E_vdwl   =     -76.499774 
E_coul   =      13.278747 E_long   =     -16.202159 Press    =     547.626586
------------ Step         109600 ----- CPU =     17560.84 (sec) -------------
TotEng   =     299.384180 KinEng   =     115.566002 Temp     =     320.413213 
PotEng   =     183.818178 E_bond   =      34.031648 E_angle  =     188.445819 
E_dihed  =      36.410507 E_impro  =       5.645253 E_vdwl   =     -77.998815 
E_coul   =      13.485206 E_long   =     -16.201441 Press    =     720.151021
------------ Step         109610 ----- CPU =     17562.78 (sec) -------------
TotEng   =     296.945790 KinEng   =     113.546174 Temp     =     314.813126 
PotEng   =     183.399616 E_bond   =      35.486781 E_angle  =     188.866997 
E_dihed  =      35.522464 E_impro  =       4.139081 E_vdwl   =     -77.586271 
E_coul   =      13.172564 E_long   =     -16.202001 Press    =      93.470070
------------ Step         109620 ----- CPU =     17564.73 (sec) -------------
TotEng   =     295.626679 KinEng   =     118.878745 Temp     =     329.597978 
PotEng   =     176.747935 E_bond   =      37.958346 E_angle  =     175.482042 
E_dihed  =      36.483835 E_impro  =       3.684097 E_vdwl   =     -73.624004 
E_coul   =      12.965434 E_long   =     -16.201814 Press    =     635.041290
------------ Step         109630 ----- CPU =     17566.69 (sec) -------------
TotEng   =     293.806573 KinEng   =     113.572214 Temp     =     314.885324 
PotEng   =     180.234359 E_bond   =      48.749515 E_angle  =     177.947470 
E_dihed  =      34.875497 E_impro  =       2.100681 E_vdwl   =     -80.998861 
E_coul   =      13.761009 E_long   =     -16.200951 Press    =   -1064.988544
------------ Step         109640 ----- CPU =     17568.63 (sec) -------------
TotEng   =     293.985988 KinEng   =     103.465155 Temp     =     286.862937 
PotEng   =     190.520833 E_bond   =      53.341861 E_angle  =     178.624419 
E_dihed  =      35.944861 E_impro  =       2.859738 E_vdwl   =     -77.505837 
E_coul   =      13.457084 E_long   =     -16.201294 Press    =    -940.049992
------------ Step         109650 ----- CPU =     17570.58 (sec) -------------
TotEng   =     290.977662 KinEng   =     110.202618 Temp     =     305.542931 
PotEng   =     180.775044 E_bond   =      48.060934 E_angle  =     170.025554 
E_dihed  =      35.250667 E_impro  =       3.933370 E_vdwl   =     -73.701865 
E_coul   =      13.407198 E_long   =     -16.200813 Press    =   -1998.683101
------------ Step         109660 ----- CPU =     17572.59 (sec) -------------
TotEng   =     289.412734 KinEng   =     116.333788 Temp     =     322.541942 
PotEng   =     173.078946 E_bond   =      46.247983 E_angle  =     164.828034 
E_dihed  =      32.345302 E_impro  =       2.605083 E_vdwl   =     -70.384144 
E_coul   =      13.637682 E_long   =     -16.200992 Press    =   -1546.966410
------------ Step         109670 ----- CPU =     17574.62 (sec) -------------
TotEng   =     288.633860 KinEng   =     113.834140 Temp     =     315.611530 
PotEng   =     174.799720 E_bond   =      45.399238 E_angle  =     166.904048 
E_dihed  =      35.576087 E_impro  =       3.630907 E_vdwl   =     -74.521337 
E_coul   =      14.011465 E_long   =     -16.200688 Press    =   -1712.934451
------------ Step         109680 ----- CPU =     17576.55 (sec) -------------
TotEng   =     288.567501 KinEng   =     107.890107 Temp     =     299.131364 
PotEng   =     180.677394 E_bond   =      49.840174 E_angle  =     170.436312 
E_dihed  =      35.423368 E_impro  =       2.473003 E_vdwl   =     -75.352213 
E_coul   =      14.057412 E_long   =     -16.200663 Press    =   -1661.650766
------------ Step         109690 ----- CPU =     17578.49 (sec) -------------
TotEng   =     286.770039 KinEng   =     112.686417 Temp     =     312.429402 
PotEng   =     174.083622 E_bond   =      41.038634 E_angle  =     171.427431 
E_dihed  =      33.662804 E_impro  =       3.370514 E_vdwl   =     -73.613616 
E_coul   =      14.397172 E_long   =     -16.199318 Press    =    -360.700032
------------ Step         109700 ----- CPU =     17580.45 (sec) -------------
TotEng   =     289.635462 KinEng   =     116.509149 Temp     =     323.028140 
PotEng   =     173.126313 E_bond   =      41.112482 E_angle  =     166.484357 
E_dihed  =      33.337051 E_impro  =       3.872429 E_vdwl   =     -69.707634 
E_coul   =      14.225310 E_long   =     -16.197682 Press    =    -386.035612
------------ Step         109710 ----- CPU =     17582.48 (sec) -------------
TotEng   =     285.109635 KinEng   =     100.733306 Temp     =     279.288733 
PotEng   =     184.376329 E_bond   =      40.335710 E_angle  =     181.809725 
E_dihed  =      35.730723 E_impro  =       3.801103 E_vdwl   =     -75.407762 
E_coul   =      14.305751 E_long   =     -16.198920 Press    =     635.283120
------------ Step         109720 ----- CPU =     17584.43 (sec) -------------
TotEng   =     283.150151 KinEng   =     103.452088 Temp     =     286.826707 
PotEng   =     179.698064 E_bond   =      40.677722 E_angle  =     179.883087 
E_dihed  =      37.291096 E_impro  =       3.080317 E_vdwl   =     -78.832117 
E_coul   =      13.797454 E_long   =     -16.199496 Press    =    -116.852595
------------ Step         109730 ----- CPU =     17586.32 (sec) -------------
TotEng   =     282.342597 KinEng   =     107.327058 Temp     =     297.570279 
PotEng   =     175.015539 E_bond   =      40.389211 E_angle  =     172.745359 
E_dihed  =      37.350817 E_impro  =       2.207137 E_vdwl   =     -75.665657 
E_coul   =      14.188502 E_long   =     -16.199829 Press    =     310.149390
------------ Step         109740 ----- CPU =     17588.27 (sec) -------------
TotEng   =     281.774630 KinEng   =     103.874207 Temp     =     287.997057 
PotEng   =     177.900423 E_bond   =      48.061832 E_angle  =     166.901389 
E_dihed  =      37.943232 E_impro  =       2.786969 E_vdwl   =     -75.875080 
E_coul   =      14.281283 E_long   =     -16.199204 Press    =    -723.538554
------------ Step         109750 ----- CPU =     17590.21 (sec) -------------
TotEng   =     280.546219 KinEng   =     102.023838 Temp     =     282.866804 
PotEng   =     178.522382 E_bond   =      41.900202 E_angle  =     176.713673 
E_dihed  =      35.811776 E_impro  =       1.551946 E_vdwl   =     -75.036397 
E_coul   =      13.781873 E_long   =     -16.200692 Press    =    -651.494401
------------ Step         109760 ----- CPU =     17592.15 (sec) -------------
TotEng   =     280.864152 KinEng   =     107.817320 Temp     =     298.929558 
PotEng   =     173.046831 E_bond   =      40.828651 E_angle  =     171.362428 
E_dihed  =      37.209834 E_impro  =       2.623063 E_vdwl   =     -76.592282 
E_coul   =      13.813614 E_long   =     -16.198476 Press    =     -31.709213
------------ Step         109770 ----- CPU =      17594.1 (sec) -------------
TotEng   =     280.989809 KinEng   =     103.292492 Temp     =     286.384220 
PotEng   =     177.697317 E_bond   =      35.034486 E_angle  =     179.632472 
E_dihed  =      37.965149 E_impro  =       3.481513 E_vdwl   =     -76.312758 
E_coul   =      14.095740 E_long   =     -16.199285 Press    =     604.099617
------------ Step         109780 ----- CPU =     17596.05 (sec) -------------
TotEng   =     278.291541 KinEng   =     107.165033 Temp     =     297.121056 
PotEng   =     171.126508 E_bond   =      39.324758 E_angle  =     173.084738 
E_dihed  =      36.617564 E_impro  =       1.585132 E_vdwl   =     -77.054750 
E_coul   =      13.768880 E_long   =     -16.199815 Press    =    2317.884009
------------ Step         109790 ----- CPU =     17598.03 (sec) -------------
TotEng   =     276.704066 KinEng   =     106.175470 Temp     =     294.377437 
PotEng   =     170.528596 E_bond   =      40.147542 E_angle  =     169.247961 
E_dihed  =      38.530241 E_impro  =       1.853465 E_vdwl   =     -76.705778 
E_coul   =      13.655517 E_long   =     -16.200352 Press    =    1500.282291
------------ Step         109800 ----- CPU =     17600.05 (sec) -------------
TotEng   =     276.827033 KinEng   =     122.296573 Temp     =     339.074097 
PotEng   =     154.530460 E_bond   =      35.069998 E_angle  =     161.865478 
E_dihed  =      38.445483 E_impro  =       2.089554 E_vdwl   =     -80.591958 
E_coul   =      13.851955 E_long   =     -16.200050 Press    =    1480.422310
------------ Step         109810 ----- CPU =     17601.98 (sec) -------------
TotEng   =     279.569737 KinEng   =     106.941837 Temp     =     296.502232 
PotEng   =     172.627901 E_bond   =      39.214665 E_angle  =     171.951996 
E_dihed  =      38.883246 E_impro  =       4.611706 E_vdwl   =     -79.706964 
E_coul   =      13.872540 E_long   =     -16.199288 Press    =   -1173.230864
------------ Step         109820 ----- CPU =     17603.91 (sec) -------------
TotEng   =     276.610245 KinEng   =     108.261594 Temp     =     300.161332 
PotEng   =     168.348651 E_bond   =      40.471592 E_angle  =     167.031382 
E_dihed  =      37.798710 E_impro  =       5.081418 E_vdwl   =     -79.604709 
E_coul   =      13.770413 E_long   =     -16.200155 Press    =   -1310.593819
------------ Step         109830 ----- CPU =     17605.89 (sec) -------------
TotEng   =     276.430506 KinEng   =     105.584040 Temp     =     292.737663 
PotEng   =     170.846466 E_bond   =      40.162178 E_angle  =     171.450656 
E_dihed  =      36.154029 E_impro  =       3.686316 E_vdwl   =     -78.156891 
E_coul   =      13.748463 E_long   =     -16.198286 Press    =   -1784.089455
------------ Step         109840 ----- CPU =      17607.9 (sec) -------------
TotEng   =     277.493015 KinEng   =     110.356874 Temp     =     305.970613 
PotEng   =     167.136142 E_bond   =      40.695171 E_angle  =     169.408583 
E_dihed  =      35.178956 E_impro  =       2.832612 E_vdwl   =     -78.618227 
E_coul   =      13.836777 E_long   =     -16.197730 Press    =    -840.950784
------------ Step         109850 ----- CPU =     17609.84 (sec) -------------
TotEng   =     275.155298 KinEng   =      98.193303 Temp     =     272.246433 
PotEng   =     176.961995 E_bond   =      41.574517 E_angle  =     181.440208 
E_dihed  =      35.857372 E_impro  =       2.673626 E_vdwl   =     -81.331339 
E_coul   =      12.947060 E_long   =     -16.199448 Press    =     -68.960637
------------ Step         109860 ----- CPU =     17611.78 (sec) -------------
TotEng   =     275.831770 KinEng   =     112.076384 Temp     =     310.738051 
PotEng   =     163.755386 E_bond   =      36.253983 E_angle  =     170.703621 
E_dihed  =      36.755969 E_impro  =       2.805272 E_vdwl   =     -79.870617 
E_coul   =      13.307443 E_long   =     -16.200285 Press    =     215.323068
------------ Step         109870 ----- CPU =      17613.7 (sec) -------------
TotEng   =     275.799279 KinEng   =     116.307661 Temp     =     322.469505 
PotEng   =     159.491618 E_bond   =      34.383745 E_angle  =     170.511391 
E_dihed  =      34.769721 E_impro  =       1.464713 E_vdwl   =     -78.837165 
E_coul   =      13.399337 E_long   =     -16.200124 Press    =     923.599521
------------ Step         109880 ----- CPU =     17615.64 (sec) -------------
TotEng   =     275.269559 KinEng   =     116.351322 Temp     =     322.590558 
PotEng   =     158.918237 E_bond   =      37.089700 E_angle  =     163.242664 
E_dihed  =      35.555290 E_impro  =       3.039607 E_vdwl   =     -77.523843 
E_coul   =      13.713990 E_long   =     -16.199171 Press    =     121.235577
------------ Step         109890 ----- CPU =     17617.58 (sec) -------------
TotEng   =     275.542185 KinEng   =     116.981736 Temp     =     324.338416 
PotEng   =     158.560449 E_bond   =      35.996482 E_angle  =     166.889380 
E_dihed  =      34.272926 E_impro  =       2.876831 E_vdwl   =     -78.658782 
E_coul   =      13.383468 E_long   =     -16.199858 Press    =     227.759341
------------ Step         109900 ----- CPU =     17619.51 (sec) -------------
TotEng   =     273.511502 KinEng   =     111.184161 Temp     =     308.264314 
PotEng   =     162.327341 E_bond   =      42.323446 E_angle  =     168.845825 
E_dihed  =      33.212919 E_impro  =       1.910340 E_vdwl   =     -80.663334 
E_coul   =      12.898990 E_long   =     -16.200845 Press    =    -955.945827
------------ Step         109910 ----- CPU =     17621.46 (sec) -------------
TotEng   =     275.707171 KinEng   =     103.460730 Temp     =     286.850669 
PotEng   =     172.246441 E_bond   =      47.583938 E_angle  =     168.574340 
E_dihed  =      34.094063 E_impro  =       2.165722 E_vdwl   =     -76.889450 
E_coul   =      12.919076 E_long   =     -16.201248 Press    =    -786.187791
------------ Step         109920 ----- CPU =     17623.47 (sec) -------------
TotEng   =     275.082322 KinEng   =     105.660365 Temp     =     292.949279 
PotEng   =     169.421958 E_bond   =      45.981305 E_angle  =     167.517172 
E_dihed  =      32.801862 E_impro  =       1.446228 E_vdwl   =     -74.780406 
E_coul   =      12.657232 E_long   =     -16.201436 Press    =   -1011.241146
------------ Step         109930 ----- CPU =     17625.44 (sec) -------------
TotEng   =     275.003523 KinEng   =     108.868381 Temp     =     301.843684 
PotEng   =     166.135142 E_bond   =      39.399248 E_angle  =     171.098555 
E_dihed  =      33.022759 E_impro  =       2.055719 E_vdwl   =     -76.747828 
E_coul   =      13.507656 E_long   =     -16.200967 Press    =   -1035.788043
------------ Step         109940 ----- CPU =     17627.36 (sec) -------------
TotEng   =     277.720520 KinEng   =     108.685605 Temp     =     301.336928 
PotEng   =     169.034915 E_bond   =      38.273553 E_angle  =     170.728736 
E_dihed  =      34.457246 E_impro  =       3.063034 E_vdwl   =     -75.255306 
E_coul   =      13.966057 E_long   =     -16.198405 Press    =    -145.075075
------------ Step         109950 ----- CPU =      17629.3 (sec) -------------
TotEng   =     275.677337 KinEng   =     109.784216 Temp     =     304.382889 
PotEng   =     165.893121 E_bond   =      42.621011 E_angle  =     163.414818 
E_dihed  =      34.036167 E_impro  =       3.256717 E_vdwl   =     -74.692356 
E_coul   =      13.456902 E_long   =     -16.200138 Press    =     625.609830
------------ Step         109960 ----- CPU =     17631.27 (sec) -------------
TotEng   =     274.124237 KinEng   =     110.980854 Temp     =     307.700635 
PotEng   =     163.143383 E_bond   =      41.066259 E_angle  =     163.869296 
E_dihed  =      32.009146 E_impro  =       2.429209 E_vdwl   =     -73.304714 
E_coul   =      13.274895 E_long   =     -16.200708 Press    =    1620.487906
------------ Step         109970 ----- CPU =     17633.25 (sec) -------------
TotEng   =     272.939735 KinEng   =     100.405662 Temp     =     278.380322 
PotEng   =     172.534073 E_bond   =      43.017669 E_angle  =     169.574658 
E_dihed  =      31.457573 E_impro  =       1.806201 E_vdwl   =     -70.410113 
E_coul   =      13.289222 E_long   =     -16.201137 Press    =     499.617997
------------ Step         109980 ----- CPU =     17635.18 (sec) -------------
TotEng   =     275.773096 KinEng   =     111.548261 Temp     =     309.273801 
PotEng   =     164.224835 E_bond   =      35.934380 E_angle  =     163.932715 
E_dihed  =      31.483276 E_impro  =       1.483347 E_vdwl   =     -65.761519 
E_coul   =      13.353210 E_long   =     -16.200574 Press    =     289.348514
------------ Step         109990 ----- CPU =     17637.14 (sec) -------------
TotEng   =     272.472701 KinEng   =      99.196476 Temp     =     275.027786 
PotEng   =     173.276225 E_bond   =      48.745704 E_angle  =     160.948159 
E_dihed  =      32.522069 E_impro  =       2.446079 E_vdwl   =     -68.540038 
E_coul   =      13.353706 E_long   =     -16.199454 Press    =   -1026.069866
------------ Step         110000 ----- CPU =     17639.12 (sec) -------------
TotEng   =     273.250306 KinEng   =      99.244088 Temp     =     275.159793 
PotEng   =     174.006218 E_bond   =      49.911125 E_angle  =     153.810575 
E_dihed  =      34.389145 E_impro  =       3.931036 E_vdwl   =     -65.366308 
E_coul   =      13.530161 E_long   =     -16.199517 Press    =    -910.899417
Loop time of 17639.2 on 1 procs for 100000 steps with 122 atoms

Performance: 0.245 ns/day, 97.995 hours/ns, 5.669 timesteps/s, 691.643 atom-step/s
99.4% CPU use with 1 MPI tasks x 1 OpenMP threads

MPI task timing breakdown:
Section |  min time  |  avg time  |  max time  |%varavg| %total
---------------------------------------------------------------
Pair    | 20.577     | 20.577     | 20.577     |   0.0 |  0.12
Bond    | 3.3503     | 3.3503     | 3.3503     |   0.0 |  0.02
Kspace  | 1.5424     | 1.5424     | 1.5424     |   0.0 |  0.01
Neigh   | 135.05     | 135.05     | 135.05     |   0.0 |  0.77
Comm    | 3.1519     | 3.1519     | 3.1519     |   0.0 |  0.02
Output  | 3.0451     | 3.0451     | 3.0451     |   0.0 |  0.02
Modify  | 17472      | 17472      | 17472      |   0.0 | 99.05
Other   |            | 0.3307     |            |       |  0.00

Nlocal:            122 ave         122 max         122 min
Histogram: 1 0 0 0 0 0 0 0 0 0
Nghost:           2479 ave        2479 max        2479 min
Histogram: 1 0 0 0 0 0 0 0 0 0
Neighs:          13752 ave       13752 max       13752 min
Histogram: 1 0 0 0 0 0 0 0 0 0

Total # of neighbors = 13752
Ave neighs/atom = 112.72131
Ave special neighs/atom = 10.967213
Neighbor list builds = 10200000
Dangerous builds = 0
unfix                1
unfix                4
unfix                freeze
undump               2
Total wall time: 4:54:02
