ITEM: TIMESTEP
0
ITEM: NUMBER OF ATOMS
122
ITEM: BOX BOUNDS pp pp pp
0.0000000000000000e+00 2.0000000000000000e+01
0.0000000000000000e+00 2.0000000000000000e+01
0.0000000000000000e+00 2.0000000000000000e+01
ITEM: ATOMS id type xu yu zu vx vy vz
1 1 2.34926 9.55852 0.873887 0 -0 -0
2 1 3.7908 9.58315 0.38615 0 0 0
3 1 4.60622 9.26947 1.63611 0 -0 0
4 2 3.74995 8.43919 2.50441 0 -0 -0
5 3 4.19518 8.4056 3.85676 0 -0 -0
6 3 3.31912 8.20952 4.9291 -0 -0 -0
7 3 3.7602 8.23696 6.25239 -0 0 -0
8 3 5.09493 8.47959 6.56897 0 0 -0
9 3 5.50716 8.59221 7.91196 0 -0 0
10 4 4.78173 8.04054 8.76724 0 -0 -0
11 3 6.63796 9.28129 8.38702 0 0 -0
28 3 7.16271 8.98869 9.64992 0 0 -0
29 3 5.98405 8.53377 5.501 0 -0 0
30 3 5.55054 8.49095 4.18318 0 -0 -0
31 1 2.4339 9.08539 2.32865 0 0 -0
33 6 1.76531 8.86018 0.274023 0 -0 -0
36 6 5.51181 8.74366 1.33385 -0 0 -0
38 6 2.32636 8.04246 4.77355 -0 0 -0
39 6 3.06845 8.10357 6.98946 -0 0 -0
65 6 6.98727 8.57736 5.66498 0 0 0
66 6 6.27589 8.51515 3.4713 0 -0 -0
67 6 2.34707 9.95725 2.97763 0 -0 0
68 6 1.61945 8.38645 2.5224 -0 -0 -0
70 2 1.18943 0.403163 6.0095 0 0 -0
84 3 3.82534 1.02895 0.261032 -0 -0 0
87 3 5.1594 0.950741 1.0896 -0 0 0
114 5 3.17617 1.43023 1.03535 0 0 -0
119 5 5.27503 1.79688 1.77507 -0 0 -0
120 5 6.11808 0.758739 0.588964 0 -0 0
121 5 5.01885 0.0839947 1.73395 -0 0 -0
122 6 3.16516 1.41336 4.97432 -0 0 -0
69 1 2.84582 0.602261 4.5255 -0 0 -0
88 4 1.73687 -0.033908 4.96984 0 -0 -0
107 5 0.0957183 -0.0544232 3.08633 -0 -0 0
12 3 7.2424 10.3248 7.68304 0 0 -0
13 3 8.3545 10.9869 8.17951 -0 -0 -0
14 3 8.90088 10.6598 9.41079 0 0 -0
32 6 1.91812 10.5575 0.82343 0 0 0
37 6 4.85155 10.21 2.13161 0 -0 -0
40 6 6.85874 10.652 6.8 0 -0 0
41 6 8.77313 11.7397 7.63349 -0 0 -0
86 3 1.30782 -1.29035 4.32451 0 -0 -0
98 5 0.387036 -1.86566 1.36589 -0 -0 -0
117 5 2.25634 -1.65567 3.90291 -0 -0 0
118 5 1.05772 -1.92894 5.17991 -0 0 0
80 3 0.02468 -1.10701 3.3888 0 0 0
115 5 3.5745 -0.0276769 0.143492 0 -0 -0
62 7 19.6584 11.71 21.4214 -0 -0 -0
15 5 10.292 11.604 9.86972 0 0 0
26 5 18.7326 10.7668 21.0999 0 0 0
73 3 -1.73384 -1.86792 1.17813 -0 -0 0
75 3 -0.395936 -2.04579 2.11414 -0 0 -0
90 5 -2.96451 -3.69597 0.885798 -0 0 0
93 5 -2.57575 -1.41106 1.70625 -0 -0 0
94 5 -1.40141 -1.12636 0.477242 0 0 0
97 5 -0.291535 -3.08231 2.46175 -0 -0 0
108 5 -0.730762 -1.18652 4.17865 -0 -0 0
71 3 -2.41858 -2.99947 0.238688 0 -0 0
27 3 8.27778 9.65583 10.1536 0 -0 0
34 6 3.94448 8.80878 -0.365259 -0 0 -0
63 6 8.61485 9.38923 11.0759 0 0 -0
64 6 6.74317 8.26005 10.2271 -0 0 -0
76 3 0.784728 1.97036 -1.56741 0 0 0
77 3 2.33628 1.93303 -2.03311 0 0 0
81 3 3.62617 1.84172 -1.11726 -0 -0 0
99 5 0.72127 2.61841 -0.690079 -0 -0 -0
100 5 0.629558 0.938195 -1.27793 -0 -0 -0
101 5 2.64477 2.83424 -2.57659 0 0 -0
102 5 2.49078 1.10302 -2.73837 0 -0 0
109 5 3.98163 2.87943 -1.03 0 0 0
110 5 4.26979 1.39577 -1.88241 -0 -0 -0
43 6 11.1533 9.62086 10.9207 -0 0 0
47 6 12.9749 9.51707 12.6919 0 0 0
51 6 14.774 9.39636 14.4582 -0 -0 0
55 6 16.5833 9.33472 16.3039 -0 -0 0
59 6 17.9146 9.40531 18.5172 0 -0 0
78 3 -0.485988 2.41541 -2.47878 -0 0 0
82 3 -2.03793 2.2343 -2.12293 -0 0 0
83 4 -3.14006 0.276925 -3.55969 0 -0 -0
85 4 -2.94183 1.60394 -3.13312 0 0 0
103 5 -0.469413 3.51007 -2.50269 -0 -0 0
104 5 -0.394301 2.09532 -3.52343 0 0 0
111 5 -2.38701 1.99917 -1.1077 -0 -0 0
112 5 -2.37419 3.26897 -2.21244 -0 0 -0
113 5 -3.60394 0.255016 -4.48132 -0 -0 0
116 5 -3.59573 2.24972 -3.61171 -0 0 -0
35 6 4.05595 10.5627 -0.0126252 -0 -0 -0
92 5 -4.54516 -2.86049 -0.327567 0 -0 -0
16 1 10.9867 10.6524 11.2315 0 0 -0
17 1 12.3235 11.2796 11.6453 -0 0 0
18 1 12.8373 10.5762 12.9077 0 0 -0
19 1 14.1676 11.1703 13.3879 0 -0 0
20 1 14.6121 10.4536 14.6699 -0 -0 0
21 1 15.9085 11.0679 15.2144 0 -0 -0
22 1 16.2996 10.3645 16.5218 0 0 -0
23 1 17.469 11.0749 17.2178 -0 -0 -0
24 1 17.6831 10.4666 18.6112 -0 0 -0
25 1 18.8293 11.1678 19.3475 0 0 0
42 6 10.3045 10.6875 12.0798 -0 -0 -0
44 6 13.044 11.1653 10.8347 0 -0 0
45 6 12.1737 12.3404 11.8484 -0 0 -0
46 6 12.0959 10.6884 13.6984 -0 0 0
48 6 14.927 11.0416 12.6169 0 -0 -0
49 6 14.0349 12.2322 13.595 -0 0 -0
50 6 13.8276 10.5522 15.4203 -0 -0 -0
52 6 16.7071 10.9487 14.4818 -0 0 -0
53 6 15.7455 12.1285 15.4043 0 0 0
54 6 15.4404 10.3642 17.1914 0 0 0
56 6 18.3754 10.9577 16.6235 0 0 0
57 6 17.2382 12.1352 17.322 0 0 -0
58 6 16.7733 10.5836 19.1999 0 0 -0
60 6 19.7862 10.8345 18.9453 0 0 -0
61 6 18.741 12.2475 19.2321 0 -0 -0
72 3 -3.56773 -2.7754 -0.821239 0 -0 0
74 3 -3.79775 -1.59724 -1.84533 0 0 -0
79 3 -2.79954 -1.05104 -2.96284 -0 0 -0
89 5 -1.72462 -3.60835 -0.359252 0 -0 -0
91 5 -3.55627 -3.72569 -1.36529 0 -0 0
95 5 -4.28254 -0.782705 -1.30644 -0 0 -0
96 5 -4.62219 -2.04435 -2.40456 -0 0 0
105 5 -2.89316 -1.69803 -3.8359 -0 0 -0
106 5 -1.74287 -1.09361 -2.73667 0 0 -0
ITEM: TIMESTEP
1000
ITEM: NUMBER OF ATOMS
122
ITEM: BOX BOUNDS pp pp pp
0.0000000000000000e+00 2.0000000000000000e+01
0.0000000000000000e+00 2.0000000000000000e+01
0.0000000000000000e+00 2.0000000000000000e+01
ITEM: ATOMS id type xu yu zu vx vy vz
1 1 3.21618 8.78695 0.0506188 0.00487418 -0.00439974 -0.00229791
2 1 3.51813 7.30776 0.295832 0.000970781 -0.00453167 0.00135553
3 1 3.69676 7.18463 1.81297 -0.00406525 -0.00183478 0.00194901
4 2 3.5007 8.53031 2.36722 0.00127107 0.000277616 -0.000819465
5 3 4.14798 8.67019 3.60836 0.000729113 0.000317297 -0.000802475
6 3 3.43818 8.22783 4.71418 -0.000284688 0.00232303 -0.000466472
7 3 3.98345 8.2745 5.99015 -0.000550534 0.00196057 -0.000382567
8 3 5.26937 8.76877 6.21885 0.000257917 -7.45211e-05 -0.000270567
9 3 5.76911 8.71968 7.53573 -0.000129313 -0.00100381 -0.000199368
10 4 5.151 7.94158 8.29285 0.000372786 -0.00151726 -0.000641779
11 3 6.84086 9.40218 8.14153 -0.000528112 -0.000656915 -9.46455e-06
28 3 7.30724 8.92771 9.37307 0.00013826 -0.0012021 -0.000596805
29 3 5.98521 9.19956 5.09931 0.00111567 -0.000866588 -0.000478771
30 3 5.43536 9.16195 3.81927 0.00159862 -0.00159021 -0.000244529
31 1 3.78446 9.48497 1.28656 0.00576469 -0.00336641 -0.00319803
33 6 2.1377 8.93833 0.00542002 0.00544077 -0.00139214 -0.00334572
36 6 2.96042 6.49434 2.22601 -0.00834355 0.00240492 0.00152099
38 6 2.49517 7.85781 4.59348 -0.00116003 0.0045091 -0.000235219
39 6 3.38861 7.93863 6.74663 -0.000553997 0.00261915 -9.49466e-05
65 6 6.95131 9.50055 5.17938 0.00145966 -0.00141363 0.000427678
66 6 6.01637 9.47864 3.04734 0.00274664 -0.00310151 -8.21647e-05
67 6 4.85027 9.6287 1.12492 0.00647686 -0.00678252 -0.00211558
68 6 3.28889 10.4401 1.46114 0.00857581 -0.0013953 -0.00558357
70 2 0.841143 0.636158 6.06677 -0.0020763 0.00245797 -0.00125145
84 3 3.77267 0.824795 0.201487 -0.000211935 -0.000302815 -0.00061991
87 3 5.09292 0.658425 1.03487 -0.000124813 -0.000566274 -0.000835354
114 5 3.11613 1.1379 1.01014 -6.42076e-05 -0.000620869 -0.000347288
119 5 5.17036 1.40206 1.83391 -0.000445839 -0.00115682 -0.000202928
120 5 6.0654 0.561825 0.533511 -5.22119e-05 0.000253538 -0.000849662
121 5 4.95931 -0.293958 1.54697 0.000237838 -0.00105896 -0.00161525
122 6 2.69893 1.88917 5.09131 -0.00112093 0.000686982 -0.000890851
69 1 2.50157 1.0463 4.63097 -0.000324461 0.000157728 -5.80692e-05
88 4 1.47365 0.270736 5.0469 -0.00105997 0.00106954 -0.000279315
107 5 -0.272108 0.0145 3.30584 -0.00127697 -0.000707629 0.000693289
12 3 7.4259 10.5746 7.65603 -0.00267955 4.77104e-06 0.000290949
13 3 8.43013 11.2262 8.36322 -0.00309353 0.00108937 0.000342835
14 3 8.86527 10.7521 9.59286 -0.00117291 0.000119486 -0.000616722
32 6 3.69166 9.14177 -0.863762 0.00664853 -0.00743306 -0.00251233
37 6 4.70348 6.82833 2.03086 -0.00624449 -0.00618789 0.00487079
40 6 7.09439 11.0117 6.80198 -0.00359731 0.000836038 0.000830467
41 6 8.83068 12.0853 7.98703 -0.00467928 0.0020896 0.000789486
86 3 1.24618 -1.02642 4.37963 -0.000587788 0.000469084 0.000594145
98 5 0.410896 -1.49267 1.40296 -8.96516e-05 -0.000356039 0.000837364
117 5 2.23769 -1.21002 3.93812 -0.000573144 0.000922905 0.000554852
118 5 1.13952 -1.73418 5.2092 0.000105076 0.000653097 0.000801614
80 3 -0.0800668 -1.05082 3.48257 -0.000703245 -0.00053839 0.00073968
115 5 3.54076 -0.216133 -0.0336851 -0.000301607 -0.000215415 -0.000911601
62 7 19.2063 13.1194 21.6836 0.000465639 0.00413068 6.51763e-05
15 5 10.0142 11.7061 10.4765 -0.000475922 -0.000459461 -0.00105373
26 5 18.9949 11.8844 21.1543 0.00015901 0.00425949 -0.000525252
73 3 -1.64265 -1.9119 1.15689 0.000256049 -0.000278639 7.28739e-05
75 3 -0.308687 -1.91125 2.11213 -0.000150466 -0.00044136 0.000641305
90 5 -2.4723 -3.91281 0.67412 0.00038872 3.2202e-05 -8.68043e-05
93 5 -2.56136 -1.66509 1.70027 7.78326e-06 -0.000592081 -0.00021406
94 5 -1.4353 -1.07152 0.517524 0.000421295 -0.000314566 0.000128221
97 5 0.00664933 -2.9323 2.36457 -0.000234728 -0.000498586 0.000942136
108 5 -0.777479 -1.40217 4.25373 -0.00062206 -0.00105383 0.000652118
71 3 -2.07658 -3.06778 0.104242 0.000866912 -0.000235808 -9.74396e-05
27 3 8.2895 9.59135 10.0919 0.000217724 -0.000692801 -0.000773708
34 6 2.69393 6.68453 -0.0526427 0.000741728 -0.00326939 -0.000282209
63 6 8.55329 9.2229 11.0025 0.000845814 -0.00137678 -0.00167001
64 6 6.93662 8.07481 9.78992 0.00126442 -0.00160295 -0.000190416
76 3 0.737398 1.92355 -1.52936 -9.36806e-05 -6.68327e-05 -3.76531e-05
77 3 2.28833 1.94538 -1.99633 -0.000180009 0.000495261 -0.000176644
81 3 3.57443 1.78483 -1.07913 -0.000223465 0.000205243 -0.00024
99 5 0.666977 2.50144 -0.603759 -0.000139475 -0.000514931 0.000206508
100 5 0.600449 0.870926 -1.33014 7.86742e-05 -0.000238986 -0.000535127
101 5 2.58063 2.89386 -2.46254 -0.000372517 0.000759937 0.000351371
102 5 2.45095 1.18375 -2.77352 -2.55591e-05 0.000899613 -0.000579129
109 5 3.91119 2.81068 -0.86467 -0.00032703 0.000165005 0.000180239
110 5 4.23778 1.44252 -1.8796 -0.00027434 0.000553067 -0.00037584
43 6 11.653 9.93906 10.2765 0.00122145 0.000949715 0.000334342
47 6 13.4351 9.58635 12.472 0.00066112 0.00236622 0.000139115
51 6 15.0436 9.70955 14.5833 0.000899659 0.00385879 -0.000185288
55 6 16.7258 10.1605 16.6297 0.00197368 0.00521598 0.000218896
59 6 18.2362 10.7897 18.617 0.000475702 0.00656161 -0.000681028
78 3 -0.551267 2.40466 -2.39317 -0.000270567 0.000165603 0.000434284
82 3 -2.09424 2.15397 -2.0348 -0.000162 -0.000379269 0.00062812
83 4 -3.22619 0.245133 -3.52062 0.000274534 -0.000183559 0.00025831
85 4 -3.01065 1.55431 -3.05135 -9.07801e-05 -0.000215709 0.000520472
103 5 -0.558262 3.49745 -2.32893 -0.000463741 6.36279e-05 0.000970876
104 5 -0.463184 2.17087 -3.46072 -0.000337645 0.000621329 0.000311669
111 5 -2.43195 1.87195 -1.02857 1.01176e-05 -0.000980635 0.000568765
112 5 -2.45493 3.18211 -2.07419 -0.000482029 -0.000467713 0.00127238
113 5 -3.7684 0.25793 -4.39813 0.000130516 -7.81554e-05 0.000312652
116 5 -3.67685 2.2142 -3.48802 -0.000230005 -0.000239842 0.000680274
35 6 4.44398 7.02773 -0.206282 0.00210708 -0.00692514 0.00484183
92 5 -4.18461 -3.30242 -0.497835 0.00141356 -0.00131088 -0.000954428
16 1 11.1402 10.4431 11.0963 -0.000208278 3.46216e-05 0.00010927
17 1 12.1289 11.2299 11.9536 -0.00185942 0.000804554 0.00108154
18 1 12.86 10.3595 12.9822 -0.000515983 0.00146695 0.000569637
19 1 13.8004 11.2777 13.7704 -0.00186986 0.00231441 0.00161606
20 1 14.4563 10.5521 14.9483 -2.0076e-05 0.00257637 0.000801217
21 1 15.3704 11.5443 15.6784 -0.00106903 0.00335765 0.00113542
22 1 15.9919 10.9091 16.9284 0.000292124 0.00350553 0.000619575
23 1 16.6677 12.0046 17.7656 -0.00157338 0.00418441 0.00138992
24 1 17.4154 11.4149 18.9681 -0.000450237 0.00438508 0.000612369
25 1 17.9749 12.5518 19.83 -0.00239647 0.00431846 0.00152689
42 6 10.6268 9.72273 11.7276 -0.000196882 -0.000948976 -0.000746095
44 6 12.8511 11.7173 11.2994 -0.00298371 0.00261724 0.0016871
45 6 11.5607 11.9955 12.4818 -0.00286697 -0.000375398 0.0011534
46 6 12.1372 9.9034 13.6591 -0.000130656 -1.22026e-05 0.000258178
48 6 14.5769 11.6457 13.0997 -0.00243504 0.00487424 0.00220968
49 6 13.2339 12.1255 14.155 -0.00344335 0.000751381 0.00277769
50 6 13.6824 10.1935 15.6269 0.00110827 0.000786482 0.000919096
52 6 16.1663 11.867 15.007 -0.00192172 0.00532389 0.00113301
53 6 14.7825 12.4115 15.9786 -0.00260418 0.00199142 0.0022901
54 6 15.2128 10.4358 17.5261 0.00140877 0.00114975 0.000495096
56 6 17.3741 12.5494 17.1391 -0.00222041 0.00504578 0.00155868
57 6 15.9052 12.6947 18.127 -0.00259969 0.00292987 0.00156329
58 6 16.7331 10.8146 19.5701 0.000823955 0.00220066 -9.52471e-05
60 6 18.5839 13.2165 19.2182 -0.00388878 0.00626682 0.00210754
61 6 17.1485 13.111 20.2684 -0.00290217 0.00238511 0.00340215
72 3 -3.2402 -2.99359 -0.963268 0.00137508 -0.000730883 -0.000594088
74 3 -3.67512 -1.7875 -1.89463 0.000883225 -0.000870014 -0.000473279
79 3 -2.79921 -1.10141 -3.03611 0.000731846 -0.000188505 -0.00015752
89 5 -1.26434 -3.46744 -0.520905 0.00120084 -0.000299718 0.000321207
91 5 -3.04397 -3.89323 -1.56086 0.00222559 -0.000559977 -0.000560923
95 5 -4.20206 -1.0428 -1.29635 0.000260308 -0.00135186 -0.000457685
96 5 -4.4959 -2.27489 -2.4253 0.00140395 -0.00145116 -0.000782907
105 5 -2.94557 -1.68671 -3.94748 0.000974834 4.65173e-05 -0.00029893
106 5 -1.72641 -1.10193 -2.88328 0.000675469 3.59948e-05 -6.92104e-05
ITEM: TIMESTEP
2000
ITEM: NUMBER OF ATOMS
122
ITEM: BOX BOUNDS pp pp pp
0.0000000000000000e+00 2.0000000000000000e+01
0.0000000000000000e+00 2.0000000000000000e+01
0.0000000000000000e+00 2.0000000000000000e+01
ITEM: ATOMS id type xu yu zu vx vy vz
2 1 4.26971 6.83194 -0.0902875 0.00795247 0.00311671 -0.00083044
3 1 3.92723 7.26044 1.34179 0.00838739 0.00417807 -0.00145665
4 2 4.96115 6.64017 2.16448 0.000839712 -0.00449209 0.00154821
5 3 5.17034 7.04023 3.49363 0.00296497 -0.00267053 0.000552527
6 3 4.18829 6.90211 4.46878 0.00326883 -0.00242083 0.000598182
7 3 4.40232 7.37343 5.76239 0.00260587 -0.0029322 0.000480183
8 3 5.60399 7.98823 6.12769 0.002672 -0.00229704 0.00124873
9 3 5.78432 8.38062 7.46923 0.000863962 -0.00221913 0.000431044
10 4 5.05669 7.7571 8.26981 -0.000957774 -0.000230535 0.000579022
11 3 6.66216 9.32636 8.04009 0.00131857 -0.00167665 -6.10049e-05
28 3 6.83999 9.32638 9.4302 0.000993421 -0.000618891 -0.000636654
29 3 6.58796 8.09356 5.14501 0.00233262 -0.00219729 0.000544844
30 3 6.36966 7.64149 3.84782 0.00312899 -0.00289798 0.000777555
31 1 5.71298 5.59646 1.45907 0.00361627 -0.00230425 0.00117686
36 6 3.97232 8.34559 1.43516 0.0167384 0.00358456 6.17146e-05
38 6 3.29913 6.45868 4.23808 0.00360237 -0.00268099 0.00011854
39 6 3.63658 7.26068 6.42632 0.00263329 -0.00337279 0.000482302
65 6 7.51212 8.45272 5.36377 0.00260309 -0.00224371 0.00078731
66 6 7.10716 7.75349 3.15356 0.00310624 -0.00329057 0.000354906
67 6 5.26912 4.624 1.66618 0.00646845 -0.00349306 0.00151855
70 2 0.399868 1.35548 5.88399 0.00267613 0.000957011 0.00027431
84 3 3.63781 0.837071 0.151944 -1.19382e-06 0.000438266 0.000471244
87 3 5.00464 0.314107 0.720484 8.02464e-05 -0.000270834 -0.000589493
114 5 3.11843 1.01081 1.09781 0.000365102 -0.000353587 0.00109772
119 5 5.3915 0.909638 1.55348 0.00227994 -0.000983664 -0.000971536
120 5 5.81672 0.0730641 0.0224418 -0.00145117 -0.00147438 -0.00177018
122 6 2.35868 2.58589 5.1188 0.000565575 0.00157536 -0.00499931
69 1 2.26261 1.70066 4.70821 5.10748e-05 0.00137524 -0.00385197
88 4 1.19979 0.921513 5.01917 0.00100529 0.00108838 -0.00136738
37 6 2.93848 6.89389 1.62117 0.00460589 0.0120975 -0.00403034
64 6 6.35665 8.65064 10.0204 0.00189076 -0.000833385 -4.29439e-05
68 6 6.76853 5.59488 1.73202 0.00336015 0.000492334 0.00188504
121 5 4.75061 -0.652697 1.15976 -0.000680401 0.000137748 -0.000432313
12 3 7.34477 10.3241 7.335 0.00123571 -0.00182381 -0.000758841
13 3 8.20274 11.2119 7.97598 -0.000317207 -9.45024e-05 -0.00103981
14 3 8.39762 11.1779 9.35073 -0.00144179 0.00199484 -0.00104867
40 6 7.20251 10.4473 6.33678 0.000972199 -0.00242316 -0.00101992
41 6 8.69378 11.9156 7.42482 -0.000260656 -0.000814045 -0.0018634
86 3 1.10556 -0.443295 4.44995 -8.0105e-05 0.000832836 -0.000161905
98 5 0.674149 -1.59411 1.538 -0.000267363 1.6272e-06 0.00100975
117 5 2.14849 -0.654117 4.17408 -0.000154862 -0.000350196 0.000390113
118 5 0.865477 -1.04826 5.32986 -0.000394038 0.00158151 0.00034116
97 5 -0.0345962 -2.70561 2.69788 -0.00161222 0.000799128 0.00153111
107 5 -0.0709154 0.416951 2.91559 0.000391967 0.000722199 -0.000637655
80 3 -0.0454036 -0.589141 3.35105 -0.000394556 0.00113462 1.31435e-06
62 7 19.6891 11.1444 20.8911 0.00254041 -0.005132 -0.00595013
26 5 18.8626 10.2756 20.25 0.000712815 -0.00468166 -0.00402079
73 3 -1.42273 -1.87312 1.10477 0.000145765 0.000286356 1.17209e-05
75 3 -0.188663 -1.74589 2.19032 -0.000627397 0.000513489 0.000701059
90 5 -2.19262 -3.93827 0.732191 0.00095871 -8.6487e-05 -0.000286156
93 5 -2.38754 -1.62264 1.55311 7.42366e-05 4.1325e-05 2.82686e-05
94 5 -1.19836 -1.10184 0.394291 0.000261819 0.000202649 -0.000136573
108 5 -0.872224 -0.676694 4.05872 -0.000865525 0.00265331 -0.000249655
71 3 -1.77173 -3.12488 0.131797 0.000884769 0.000132633 -0.000137389
61 6 17.6945 12.3494 20.0114 0.00518908 -0.00243296 -0.00318461
1 1 5.53897 5.96708 -0.0197493 0.00336832 -0.00304001 0.000403932
33 6 6.39366 6.56257 -0.339549 0.00641108 -0.00820256 -0.00166376
32 6 5.46542 5.08737 -0.653378 -0.00107735 -0.00388575 0.00235588
27 3 7.68462 10.2251 10.0741 -5.31082e-05 0.000913662 -0.000883171
34 6 4.45425 7.70755 -0.712604 0.0123999 0.00238757 -0.000698374
63 6 7.75921 10.1662 11.0864 -0.000208554 0.00168597 -0.00148542
76 3 0.551608 2.12141 -1.29835 -0.000634349 5.31736e-05 0.00103062
77 3 2.09242 2.47449 -1.63626 -0.000627822 0.00101129 0.00130381
81 3 3.39788 2.10506 -0.811581 -0.000165393 0.00081855 0.000783443
99 5 0.424539 2.25041 -0.224829 -0.00129824 -0.00226813 0.00131752
100 5 0.496833 1.08141 -1.55958 -0.000239044 0.00046033 -0.00100814
101 5 2.27648 3.55492 -1.72727 -0.000743288 0.00115359 0.00098786
102 5 2.33081 2.03189 -2.61094 -0.00104923 0.00075534 0.00131765
109 5 3.65796 3.01874 -0.278157 -0.00228961 0.000559357 0.00282758
110 5 4.09372 2.10275 -1.65539 0.000204964 0.00118601 0.000354356
35 6 3.44406 6.253 -0.502889 0.00554352 0.00677539 -0.00103026
43 6 10.3057 10.6059 11.4456 -0.00687209 0.00417853 -0.000657538
47 6 11.2184 11.1072 13.7985 -0.0022158 0.00172974 -0.000458178
51 6 13.2502 10.8183 15.1835 -0.00597736 0.00245039 0.00338863
78 3 -0.779111 2.78237 -1.93854 -0.000741397 0.000485171 0.00174543
82 3 -2.25192 2.15623 -1.88553 -0.000605793 3.26266e-05 -0.000417469
83 4 -2.9294 0.13419 -3.53982 0.000544962 -0.000513052 -0.000764311
85 4 -2.91284 1.44621 -3.0277 0.000542125 -0.000387925 -0.0010313
103 5 -0.959998 3.68417 -1.34527 -0.00131282 -0.00076873 0.00341446
104 5 -0.652266 3.13908 -2.96949 -0.000482584 0.00182025 0.00238338
111 5 -2.65626 1.80076 -0.929584 -0.00112576 0.000271122 -0.000534444
112 5 -2.80156 3.09608 -1.96943 -0.000821925 -0.000125998 -0.00138011
113 5 -3.37991 0.130787 -4.46711 0.000890345 -0.000680056 -0.000928404
116 5 -3.59959 2.01591 -3.54705 0.00118242 -0.000517692 -0.0019647
42 6 9.1356 11.6695 12.2902 -0.00418315 0.00649044 -0.000262689
46 6 10.5835 12.7149 14.2149 -0.00298875 0.00131708 -0.00103893
115 5 3.27423 -0.0773695 -0.306787 0.000664302 0.000458961 -0.00012429
15 5 9.48385 12.367 10.0177 -0.00479599 0.00507662 -0.000568464
55 6 15.4486 10.646 16.328 -0.00494592 -0.000201959 0.000996279
59 6 17.3381 10.2948 17.7861 -0.0108113 -0.00780144 0.0043964
92 5 -3.812 -3.47987 -0.611742 0.000924835 -2.56415e-05 8.92999e-05
16 1 9.97145 11.6341 11.591 -0.0046795 0.00484611 -0.000844452
17 1 11.1272 12.4764 12.1434 -0.00157439 0.000828278 -0.000914673
18 1 11.3352 12.1783 13.6344 -0.00251869 0.00156378 -0.000479912
19 1 12.7316 12.6028 14.1071 -0.00268992 0.00207203 -1.15175e-05
20 1 13.0921 11.8733 15.4074 -0.00321921 0.00343054 0.00140139
21 1 14.3764 12.4743 15.9915 -0.00196919 0.00125958 0.00106988
22 1 15.0349 11.4575 16.9276 -0.00355384 0.000373177 0.00118832
23 1 16.1559 12.1034 17.7511 -0.00198144 -0.00130922 0.000481907
24 1 16.9272 11.0079 18.5011 -0.00509339 -0.00226671 0.00248256
25 1 18.0795 11.6027 19.3174 0.000101467 -0.00451489 -0.00345901
44 6 12.0225 12.2415 11.5692 -0.00238591 -0.00320279 -0.000858516
45 6 10.891 13.5334 12.0251 0.00313091 0.00187824 -0.00278627
48 6 13.4748 12.3407 13.3544 -0.00180651 0.00141532 0.00123444
49 6 12.7457 13.6812 14.2668 -0.00250931 0.00223473 -0.000724393
50 6 12.2832 11.972 16.1316 -0.00295999 0.00649135 0.00138112
52 6 15.0728 12.7168 15.1885 -0.00171809 4.87764e-05 0.000752173
53 6 14.1287 13.382 16.5419 2.82711e-05 0.00201301 0.000498201
54 6 14.2841 11.0565 17.6086 -0.00359566 0.00196461 0.00180343
56 6 16.8374 12.637 17.0893 -0.000947856 -0.00374141 -0.000587682
57 6 15.7231 12.804 18.4659 -0.000429136 0.000584388 -0.000460206
58 6 16.2465 10.4865 19.1742 -0.00600934 0.00400449 0.00626155
60 6 18.8107 12.0643 18.6525 -0.00113836 -0.0084375 -0.00730679
72 3 -2.85471 -3.13773 -1.02495 0.000841699 -0.000212554 -0.000123989
74 3 -3.31915 -1.99559 -2.01668 0.000594138 -0.00033764 -0.000191645
79 3 -2.44033 -1.19969 -3.07355 0.000213685 -0.000558519 -0.000677204
89 5 -0.912591 -3.56094 -0.394403 0.0011788 0.000153575 0.000271237
91 5 -2.57346 -4.03317 -1.59343 0.000643032 -0.000340894 -4.14461e-06
95 5 -4.0134 -1.33721 -1.49123 0.000905842 -7.37735e-05 -8.47857e-05
96 5 -3.97967 -2.59419 -2.64745 0.000251023 -0.000361671 0.000310751
105 5 -2.52382 -1.76817 -4.00186 -0.00079162 -0.000690608 -0.000620499
106 5 -1.37594 -1.17671 -2.90386 0.000304335 -0.000923523 -0.00116905
ITEM: TIMESTEP
3000
ITEM: NUMBER OF ATOMS
122
ITEM: BOX BOUNDS pp pp pp
0.0000000000000000e+00 2.0000000000000000e+01
0.0000000000000000e+00 2.0000000000000000e+01
0.0000000000000000e+00 2.0000000000000000e+01
ITEM: ATOMS id type xu yu zu vx vy vz
3 1 7.95825 6.49452 1.35122 0.00469593 -0.00779104 -0.000444072
4 2 7.62887 5.76367 2.56573 0.00525852 -0.00622181 0.00129989
5 3 7.26605 6.43648 3.73452 0.00438345 -0.0017633 -3.69523e-05
6 3 5.93152 6.31758 4.06951 0.00371387 -0.00246254 -0.000189653
7 3 5.45232 6.93883 5.2091 0.00162877 -0.00339091 -0.000107902
8 3 6.30338 7.62652 6.0726 -0.00185184 0.000314631 0.000822871
9 3 5.7493 8.16277 7.24129 -0.0038379 0.00100669 6.93078e-05
10 4 4.70643 7.6001 7.62253 -0.00334634 0.000338337 0.00220416
11 3 6.20681 9.23421 8.00882 -0.00353898 0.0031511 -0.00201743
28 3 5.79457 9.32028 9.33978 -0.00289248 0.00209511 -0.00248713
29 3 7.663 7.67991 5.76738 -0.000894467 0.00238663 -0.000679412
30 3 8.13865 7.10903 4.59052 0.00260798 0.000573648 0.00125637
31 1 8.62531 4.70123 2.74235 0.00779065 -0.00245589 0.00287572
36 6 8.65526 7.3019 1.57208 0.00167917 -0.00566639 0.00176632
38 6 5.2961 5.79029 3.46983 0.00523729 -0.00401393 -0.000617575
39 6 4.45021 6.87453 5.38298 0.00187082 -0.00693582 -5.44977e-05
65 6 8.3301 8.1115 6.40444 -0.001604 0.00342879 5.36586e-05
66 6 9.13186 7.17633 4.37363 0.00330839 0.00171896 0.00299538
67 6 8.19172 3.87699 3.30846 0.012786 -0.00508534 0.00288707
70 2 0.731887 1.73249 5.83334 -0.00141204 -0.000769791 0.00182987
84 3 3.56481 1.16764 -0.272584 0.000672397 0.000587945 -0.00105956
87 3 5.04544 0.672605 -0.108552 0.00133725 0.00172625 -0.00216997
114 5 3.18029 0.970367 0.732634 0.00189494 -0.00125773 -0.000473077
119 5 5.72178 1.2247 0.552993 -0.000352442 0.00197936 -0.000710419
122 6 2.42977 2.70779 4.36147 -0.00160905 0.00117654 0.00302568
69 1 2.18412 1.78596 4.13491 -0.00139355 0.00168158 0.00217394
88 4 1.22777 1.14142 4.8472 -0.000854367 0.000327282 0.00154467
37 6 7.06031 6.88629 0.871861 0.00426803 -0.0104458 -0.0015985
68 6 9.519 5.07216 3.23963 0.00705817 0.00184483 0.00106799
1 1 9.00417 4.2275 1.34321 0.00611377 -0.00372802 0.00262458
107 5 -0.489058 0.538725 3.15633 -0.000670583 0.00053359 0.00112556
121 5 4.92696 -0.295764 0.375456 0.0015223 2.02434e-05 -0.00492815
12 3 6.97298 10.266 7.46496 -0.000696855 0.00111103 -0.00178399
13 3 7.36532 11.3385 8.25428 0.00168366 -0.000253021 0.000101402
14 3 6.93949 11.4226 9.57687 -0.00174146 0.0015838 -0.00122219
40 6 7.22964 10.2666 6.47923 0.000955146 0.0026514 -0.00166293
41 6 7.94529 12.0781 7.85781 0.00579646 -0.00262979 0.00156141
86 3 0.892408 -0.270592 4.58575 -0.000113052 0.000361146 0.00070199
98 5 0.334566 -1.5694 1.83117 -0.0014178 0.000143359 0.00109816
117 5 1.87797 -0.728293 4.39752 0.000108472 0.000816466 -0.000244776
118 5 0.598655 -0.625752 5.57949 0.00062536 -0.00032317 0.000707062
15 5 7.35876 12.7749 10.5805 -0.0049706 0.00193816 0.00091571
97 5 -0.488681 -2.55232 3.0932 -0.00268054 0.00129478 0.00159414
80 3 -0.356464 -0.456026 3.59222 -0.000639012 0.000521835 0.00108843
62 7 19.1986 9.54003 18.4354 -0.00195191 0.00134613 0.00840442
26 5 17.8817 9.41039 18.7529 -0.00409961 0.00170061 -0.00111595
73 3 -1.75004 -1.79264 1.37004 -0.00226017 0.000502596 0.00135192
75 3 -0.546657 -1.64143 2.48186 -0.00165526 0.000812701 0.000916333
90 5 -2.79495 -3.69419 1.13115 -0.00115159 -0.000150489 -0.000337076
93 5 -2.73395 -1.4914 1.7546 -0.00222714 -0.00160882 0.00300288
94 5 -1.50662 -1.06779 0.623265 -0.00502554 0.00191142 0.00170898
108 5 -1.14294 -0.563977 4.34768 -0.000217522 0.000245596 0.0014842
71 3 -2.0849 -3.12871 0.516693 -0.000879544 0.000413056 0.000627212
2 1 8.63776 5.42688 0.464103 0.0130727 -0.00418241 0.000957816
120 5 5.56172 0.440167 -1.04391 0.0040066 0.00567206 -0.0018517
64 6 5.23878 8.58077 9.76939 -0.00279355 0.00286488 -0.000766427
33 6 10.0646 3.97861 1.27935 0.0053507 -0.00577841 0.00254117
32 6 8.3862 3.37106 1.07205 0.00240279 -0.00145938 0.00371494
34 6 9.52282 5.82801 -0.0315511 0.0190769 -0.00159948 0.013883
76 3 0.303717 2.28012 -1.36275 -0.000110019 -0.000140741 -4.2397e-05
77 3 1.57846 3.15882 -0.894818 -0.00103423 2.32487e-05 0.00256161
81 3 3.08004 2.62764 -0.785387 -0.000607511 0.000867681 -0.0006115
99 5 0.235709 1.45005 -0.690909 0.000258407 -0.000958857 -0.000910024
100 5 0.534816 1.89581 -2.35431 0.000370637 0.00158223 -0.000811735
101 5 1.43121 3.6608 0.0735701 -0.00131692 -0.00398349 0.00464066
102 5 1.70849 3.98914 -1.60963 -0.00160365 0.00313857 0.00575934
109 5 3.44448 3.37011 -0.0635649 0.000768603 0.00229927 -0.00297643
110 5 3.55778 2.91963 -1.73569 -0.00289781 0.00153683 -0.00151756
35 6 7.92158 5.08924 -0.284352 0.0231198 -0.00477344 -0.00839022
78 3 -1.23879 2.70955 -1.31929 -0.000509754 -0.00184102 0.00030815
82 3 -2.35103 1.8866 -2.05978 -0.000160151 -0.000613359 -0.00101606
83 4 -1.80852 -0.291006 -3.58011 0.00180297 -0.000397437 5.57089e-05
85 4 -2.11961 1.05452 -3.28258 0.000438335 -0.000711545 -0.000477625
103 5 -1.5993 2.59745 -0.287282 -0.00135766 -0.00385883 -0.000394095
104 5 -1.45918 3.74689 -1.6006 -0.000723691 -0.00177113 0.00146761
111 5 -3.01909 1.46498 -1.31324 -0.00131005 -0.000429554 -0.00206879
112 5 -2.98838 2.66799 -2.47959 0.00134668 0.000383115 -0.00132918
113 5 -1.56048 -0.375835 -4.57182 0.0024285 0.000340659 0.000294341
116 5 -2.22453 1.58439 -4.15532 -0.000163045 -0.00117254 -0.000559803
27 3 6.12485 10.4282 10.103 -0.00267942 0.00214363 -0.00269556
63 6 5.78784 10.505 11.062 -0.00311747 0.00262573 -0.00359954
42 6 8.70513 11.384 11.9678 -0.00340003 -0.000430841 -0.00357646
115 5 3.22619 0.367718 -0.935524 0.000374256 0.000833748 -0.00133051
16 1 8.93209 12.1709 11.2486 -0.0039258 0.00126109 -0.00141492
61 6 17.8007 11.7549 18.2871 0.000370634 0.00335865 0.00126533
43 6 9.52498 11.7464 10.4387 -0.00489015 0.0039115 -0.00295566
47 6 11.1329 11.7711 12.6172 -0.00220585 -0.0044526 -0.001732
51 6 12.0323 11.7857 14.8711 -0.00250903 -0.000692665 0.0038198
46 6 9.96051 12.3123 13.8353 -0.00133045 -0.00680027 -0.000247256
55 6 13.6807 11.3323 16.462 0.00170596 0.00104809 -0.000570723
59 6 15.6052 10.1199 16.9576 0.00641294 0.00168461 -0.00666066
92 5 -3.8815 -3.44996 -0.661435 0.000332374 0.000259045 -0.000549379
17 1 9.76176 13.2797 11.9409 -0.0025782 -0.00197794 0.00197718
18 1 10.6315 12.6409 13.0417 -0.00217847 -0.00532251 -7.22275e-05
19 1 11.7102 13.5425 13.672 -0.00337077 -0.00371986 -0.000317373
20 1 12.1935 12.8598 14.9643 -0.00257321 -0.000354494 0.000859072
21 1 13.689 13.0916 15.2332 -0.00269103 0.00012135 -0.00113947
22 1 14.0649 12.3485 16.5286 0.00112914 0.00112578 -0.00153459
23 1 15.5768 12.2832 16.8108 0.00234214 0.00159286 -0.00626758
24 1 15.9212 10.9774 17.5531 0.00325264 0.00210505 -0.00584165
25 1 17.4383 10.864 17.7741 0.00236 0.00366815 -0.00102502
44 6 10.3955 13.772 11.2022 -0.00279348 0.000639518 0.00319198
45 6 9.09099 14.011 12.3935 -0.00212048 -0.002608 0.00399714
48 6 12.5356 13.6565 12.9697 -0.00354985 -0.00260438 -0.000412267
49 6 11.2965 14.5216 13.9127 -0.00461655 -0.00430272 -0.000885167
50 6 11.6058 13.231 15.8047 -0.00232569 0.00150678 0.000398999
52 6 14.2692 12.693 14.4006 -0.00409688 -0.000530964 -0.00144684
53 6 13.8873 14.1579 15.3454 -0.00226272 0.000395844 -0.00339548
54 6 13.5808 12.8455 17.3691 0.00297556 0.000383459 -4.51899e-05
56 6 16.1308 12.3147 15.8727 0.00027648 4.07831e-05 -0.00758888
57 6 15.8605 13.1406 17.4215 0.00361555 0.00163624 -0.00667314
58 6 15.4099 10.9576 18.5161 0.00072563 0.00119796 -0.00690878
60 6 17.93 10.7909 16.8047 0.0060706 0.00520491 0.000782939
72 3 -2.82745 -3.2434 -0.86735 0.000429966 0.000104887 -9.69427e-06
74 3 -2.88724 -2.26757 -2.10653 0.00192728 -0.000958176 -0.000970109
79 3 -1.6717 -1.59698 -2.87036 0.00224535 -0.000245814 0.000432088
89 5 -1.2615 -3.81782 0.288336 -0.000914142 0.000209832 0.00170479
91 5 -2.49014 -4.22998 -1.21103 0.000123369 -0.000224921 0.000601136
95 5 -3.71659 -1.58907 -1.94073 0.00119032 -0.00124778 -0.00382519
96 5 -3.29821 -2.93406 -2.8693 0.00388989 -0.00227239 -0.000900265
105 5 -1.59023 -2.23512 -3.75537 0.00310444 -0.000759433 0.000871514
106 5 -0.673363 -1.68829 -2.44553 0.00170883 0.000972493 0.00200878
ITEM: TIMESTEP
4000
ITEM: NUMBER OF ATOMS
122
ITEM: BOX BOUNDS pp pp pp
0.0000000000000000e+00 2.0000000000000000e+01
0.0000000000000000e+00 2.0000000000000000e+01
0.0000000000000000e+00 2.0000000000000000e+01
ITEM: ATOMS id type xu yu zu vx vy vz
3 1 10.5549 5.54121 3.44987 0.00506261 -0.00152483 0.00296993
4 2 9.39927 4.78764 3.95681 0.00557756 -1.35961e-05 0.00484323
5 3 8.52911 5.54054 4.71873 0.00173723 -0.00281891 0.000874864