ITEM: TIMESTEP
0
ITEM: NUMBER OF ATOMS
1280
ITEM: BOX BOUNDS pp pp pp
0.0000000000000000e+00 4.5735666000000002e+01
0.0000000000000000e+00 3.2339998999999999e+01
0.0000000000000000e+00 4.9056530000000002e+01
ITEM: ATOMS id type xu yu zu vx vy vz
850 5 1.47959 2.0241 4.05356 0 0 -0
851 4 3.66433 1.58091 5.82988 0 0 -0
861 4 0.42361 4.7122 4.05102 -0 0 -0
862 5 1.47959 7.41408 4.05357 0 0 -0
863 4 3.66433 6.97093 5.82989 -0 0 0
864 5 5.86522 5.15963 5.83004 -0 0 -0
922 5 9.10332 2.02362 4.05375 0 0 -0
923 4 11.2854 1.58143 5.82904 -0 0 0
933 4 8.04555 4.71208 4.05154 -0 -0 0
934 5 9.10332 7.4136 4.05376 0 0 0
935 4 11.2854 6.97144 5.82904 0 -0 -0
853 4 7.18801 0.4745 8.23415 -0 0 -0
854 5 2.34194 0.87053 8.23722 -0 -0 -0
855 4 3.37652 0.47094 10.8184 0 -0 0
856 5 6.15389 0.87558 10.8221 0 0 0
865 4 7.188 5.86451 8.23419 0 0 0
866 5 2.34193 6.26053 8.23719 0 -0 0
867 4 3.37651 5.86092 10.8184 -0 0 0
868 5 6.1539 6.26558 10.8221 -0 -0 0
926 5 9.96543 0.87002 8.23954 0 0 0
927 4 10.9994 0.47162 10.8158 0 -0 0
938 5 9.96542 6.26002 8.23951 -0 -0 0
939 4 10.9994 5.8616 10.8158 -0 -0 -0
857 4 7.47345 1.58128 13.2262 -0 0 0
860 5 5.2925 2.02372 15.0031 0 -0 -0
869 4 7.47346 6.97127 13.2262 0 0 0
870 5 2.0558 5.15867 13.227 -0 0 -0
871 4 4.23266 4.71258 15.0055 0 -0 0
872 5 5.29249 7.41374 15.0031 0 -0 -0
942 5 9.6767 5.15882 13.2282 -0 -0 -0
796 1 11.2025 5.15811 20.6898 -0 0 0
797 1 9.45674 5.71665 21.728 0 -0 0
807 2 10.6232 5.54762 24.3494 -0 -0 -0
813 2 11.3086 5.05781 23.0461 -0 -0 0
815 2 10.7913 5.79666 21.7775 0 -0 -0
834 3 9.57316 5.25589 24.3291 -0 -0 -0
835 3 10.6741 6.63607 24.3777 -0 0 -0
844 3 11.174 3.98008 22.954 0 0 0
798 2 11.2817 4.94209 28.1713 -0 -0 0
799 2 10.5976 5.48064 29.45 -0 0 -0
800 2 10.6003 5.49754 26.9022 -0 -0 0
802 2 11.2889 4.97119 25.6204 -0 0 -0
816 3 11.2284 3.85343 28.1634 -0 -0 0
818 3 10.6407 6.56973 29.4388 0 -0 -0
819 3 9.55103 5.17642 29.4348 -0 0 -0
820 3 10.6514 6.58632 26.9095 0 0 -0
821 3 9.55082 5.2035 26.8903 0 -0 -0
825 3 11.2334 3.88282 25.5987 -0 -0 -0
455 3 10.2439 7.31009 36.2975 -0 0 0
468 3 9.27783 7.57657 33.9984 0 0 0
801 2 11.2773 4.94794 30.7305 0 0 0
803 2 10.6531 2.92991 36.2531 -0 -0 0
805 2 9.76006 3.80562 35.3441 0 0 0
806 2 10.6773 5.57668 32.0182 0 -0 0
809 2 9.66641 3.19743 33.9175 0 0 -0
810 2 9.1836 5.29601 32.3205 0 -0 0
812 2 8.74192 3.94153 32.9334 -0 0 0
823 3 11.1973 3.8616 30.7701 0 -0 -0
826 3 10.245 1.92011 36.2968 -0 0 0
830 3 8.76037 3.87171 35.7734 0 -0 -0
831 3 10.1795 4.81009 35.2878 0 0 0
832 3 10.7736 6.65907 31.9329 0 -0 0
833 3 11.2899 5.27472 32.8678 -0 -0 -0
838 3 10.665 3.12849 33.486 -0 -0 -0
839 3 9.27971 2.18088 33.9894 -0 -0 -0
840 3 8.49983 5.65913 31.5532 0 -0 -0
843 3 7.68294 3.90733 33.1893 -0 0 0
465 3 11.1239 6.97787 38.6427 -0 -0 0
804 2 10.7518 3.50059 37.6928 -0 0 -0
828 3 9.74318 3.61513 38.0899 0 0 -0
829 3 11.2108 4.48863 37.6581 0 0 0
836 3 11.1249 1.58819 38.6417 -0 0 0
837 3 11.431 2.98707 39.6653 -0 -0 -0
873 4 0.4236 10.1022 4.05103 0 0 -0
874 5 1.47958 12.8041 4.05357 0 0 -0
875 4 3.66433 12.3609 5.82986 -0 -0 -0
876 5 5.86522 10.5496 5.83005 0 -0 -0
885 4 0.4236 15.4922 4.05103 0 -0 -0
888 5 5.86522 15.9396 5.83007 -0 -0 0
945 4 8.04555 10.1021 4.05154 0 0 -0
946 5 9.10332 12.8036 4.05375 0 0 -0
947 4 11.2854 12.3615 5.82901 0 0 0
957 4 8.04555 15.4921 4.05153 0 0 0
877 4 7.18801 11.2545 8.23412 -0 -0 -0
878 5 2.34193 11.6505 8.23724 -0 0 0
879 4 3.3765 11.2509 10.8184 -0 -0 0
880 5 6.15389 11.6556 10.8221 0 0 0
950 5 9.96541 11.65 8.23956 -0 -0 0
951 4 10.9994 11.2516 10.8158 0 0 0
881 4 7.47347 12.3613 13.2262 0 0 -0
882 5 2.05578 10.5487 13.2271 -0 0 -0
883 4 4.23266 10.1026 15.0055 -0 0 -0
884 5 5.29248 12.8038 15.0031 0 0 -0
894 5 2.05576 15.9387 13.2271 0 -0 -0
895 4 4.23266 15.4926 15.0055 -0 0 -0
954 5 9.67668 10.5488 13.2283 0 0 0
966 5 9.67666 15.9388 13.2283 -0 0 0
389 2 11.305 15.8179 23.052 0 -0 0
410 3 9.57216 16.0291 24.3319 -0 -0 0
420 3 11.1842 14.7378 22.9693 0 0 0
425 1 11.2031 10.6525 20.6549 -0 0 -0
426 1 9.4408 11.208 21.7441 -0 -0 -0
436 2 10.6228 10.9327 24.3507 0 -0 0
442 2 11.3056 10.4375 23.0484 -0 -0 0
444 2 10.7793 11.1836 21.7885 0 -0 -0
463 3 9.57262 10.6415 24.3307 -0 -0 0
464 3 10.6748 12.0212 24.3752 0 0 0
473 3 11.1774 9.35882 22.9588 -0 -0 -0
372 1 11.2194 16.1227 20.6317 -0 -0 -0
374 2 11.2815 15.7215 28.1723 0 -0 0
378 2 11.2889 15.7504 25.6232 0 0 -0
392 3 11.2278 14.6329 28.163 0 0 0
395 3 9.55111 15.9542 29.4346 -0 0 -0
397 3 9.551 15.9814 26.8909 0 0 0
401 3 11.2336 14.662 25.6023 -0 0 0
427 2 11.2815 10.3308 28.1721 -0 0 0
428 2 10.5973 10.8694 29.4506 -0 -0 -0
429 2 10.6 10.8869 26.9033 0 -0 0
431 2 11.2889 10.3597 25.6223 -0 0 -0
445 3 11.2282 9.24219 28.1631 -0 -0 0
447 3 10.6406 11.9585 29.439 -0 -0 0
448 3 9.55086 10.5648 29.4346 -0 0 0
449 3 10.6511 11.9756 26.9098 -0 -0 0
450 3 9.55076 10.5919 26.8905 -0 0 -0
454 3 11.2337 9.27133 25.6006 -0 0 0
377 2 11.2765 15.7266 30.731 0 -0 -0
379 2 10.6529 13.7095 36.2541 -0 0 -0
381 2 9.75919 14.588 35.3484 -0 -0 -0
385 2 9.66496 13.9832 33.9232 0 0 -0
386 2 9.18263 16.0796 32.3231 0 -0 -0
388 2 8.74221 14.7256 32.9373 0 -0 0
399 3 11.1963 14.6402 30.7696 -0 -0 -0
402 3 10.244 12.7001 36.2974 0 -0 -0
406 3 8.75903 14.6527 35.7769 -0 0 -0
407 3 10.1795 15.5921 35.2911 -0 -0 0
409 3 11.2904 16.0537 32.8676 -0 0 0
414 3 10.665 13.9169 33.4946 0 0 -0
415 3 9.27753 12.9671 33.9979 -0 0 0
419 3 7.68166 14.6832 33.1853 -0 -0 -0
430 2 11.2767 10.3364 30.731 0 0 0
432 2 10.6528 8.31957 36.254 -0 0 -0
434 2 9.75897 9.19802 35.3481 0 -0 0
435 2 10.6771 10.9659 32.0187 0 -0 0
438 2 9.66478 8.59278 33.9229 0 -0 0
439 2 9.18294 10.6876 32.3224 -0 0 -0
441 2 8.74192 9.33308 32.9353 -0 -0 0
452 3 11.1969 9.25 30.7697 -0 -0 0
459 3 8.75888 9.263 35.7767 -0 -0 -0
460 3 10.1793 10.2021 35.2908 -0 0 -0
461 3 10.7743 12.0481 31.9324 -0 0 -0
462 3 11.2905 10.6642 32.8677 -0 0 0
467 3 10.665 8.52706 33.4948 0 0 -0
469 3 8.5012 11.0453 31.5508 0 0 0
472 3 7.68209 9.29524 33.1872 -0 -0 0
380 2 10.7521 14.2799 37.6934 -0 -0 0
404 3 9.7434 14.3944 38.0902 -0 -0 0
405 3 11.2112 15.2678 37.6582 -0 0 -0
412 3 11.124 12.3679 38.6425 -0 -0 0
413 3 11.4314 13.7667 39.6656 -0 -0 -0
433 2 10.7521 8.88984 37.6933 -0 0 -0
457 3 9.74342 9.00453 38.0902 0 0 -0
458 3 11.2112 9.87782 37.6582 0 0 0
466 3 11.4315 8.37684 39.6654 -0 -0 -0
886 5 1.47957 18.1941 4.05356 -0 0 -0
887 4 3.66434 17.7509 5.82983 -0 0 -0
897 4 0.42359 20.8822 4.05102 -0 -0 0
898 5 1.47957 23.5841 4.05355 0 -0 -0
899 4 3.66434 23.1409 5.82982 -0 -0 0
900 5 5.86521 21.3296 5.83009 0 0 0
958 5 9.10332 18.1936 4.05373 -0 0 0
959 4 11.2854 17.7515 5.82898 -0 0 -0
969 4 8.04555 20.8821 4.05152 0 0 -0
970 5 9.10331 23.5836 4.05373 0 0 0
971 4 11.2854 23.1415 5.82897 -0 -0 0
889 4 7.18803 16.6445 8.234 -0 -0 0
890 5 2.34193 17.0405 8.23733 -0 -0 -0
891 4 3.3765 16.6409 10.8183 -0 0 -0
892 5 6.15387 17.0456 10.8223 -0 -0 0
901 4 7.18804 22.0345 8.23396 0 -0 -0
902 5 2.34193 22.4305 8.23735 0 0 -0
903 4 3.37651 22.031 10.8183 0 -0 0
904 5 6.15386 22.4356 10.8223 -0 -0 0
962 5 9.96541 17.04 8.23964 -0 -0 -0
963 4 10.9994 16.6416 10.8157 -0 0 0
974 5 9.96541 22.43 8.23967 0 -0 -0
975 4 10.9994 22.0316 10.8157 0 -0 -0
893 4 7.47346 17.7513 13.2261 -0 -0 -0
896 5 5.29248 18.1938 15.0031 0 0 -0
905 4 7.47345 23.1413 13.2262 0 -0 0
906 5 2.05577 21.3287 13.2271 -0 -0 -0
907 4 4.23265 20.8826 15.0055 -0 -0 0
908 5 5.29249 23.5837 15.0032 0 -0 -0
978 5 9.67667 21.3288 13.2283 0 -0 0
319 1 11.2888 21.6749 20.6054 -0 -0 -0
320 1 9.44463 22.2209 21.7517 -0 0 0
330 2 10.6205 21.7054 24.3506 0 -0 -0
336 2 11.306 21.1844 23.0611 0 0 -0
338 2 10.7212 21.8276 21.7825 0 0 0
357 3 9.56995 21.4152 24.3335 0 -0 -0
358 3 10.6748 22.7939 24.3648 -0 0 0
367 3 11.2099 20.1001 23.0066 -0 0 0
411 3 10.6749 17.4089 24.3725 -0 0 -0
373 1 9.4355 16.6756 21.7488 -0 0 0
383 2 10.6223 16.3204 24.3512 -0 0 -0
391 2 10.7685 16.5539 21.7934 0 -0 -0
321 2 11.2815 21.1109 28.1726 0 -0 0
322 2 10.5968 21.6496 29.4512 -0 0 -0
323 2 10.5994 21.6673 26.9041 -0 -0 -0
325 2 11.2884 21.1404 25.6239 -0 -0 -0
339 3 11.2273 20.0222 28.1635 0 0 0
341 3 10.639 22.7387 29.4395 -0 -0 0
342 3 9.55099 21.3428 29.4353 0 -0 0
343 3 10.6492 22.7561 26.9112 0 -0 -0
344 3 9.55095 21.3696 26.8916 -0 0 -0
348 3 11.2334 20.0519 25.6048 0 0 -0
375 2 10.5973 16.2598 29.4508 -0 -0 0
376 2 10.5998 16.2779 26.9038 0 -0 -0
394 3 10.6401 17.3489 29.4394 -0 0 -0
396 3 10.6503 17.3667 26.9103 0 0 -0
324 2 11.2747 21.1197 30.7333 0 -0 -0
326 2 10.6526 19.0987 36.2538 -0 -0 -0
328 2 9.7588 19.9773 35.348 -0 0 0
329 2 10.6753 21.7513 32.0227 0 0 0
332 2 9.66505 19.3729 33.9223 0 0 -0
333 2 9.18076 21.4752 32.3295 0 0 0
335 2 8.74347 20.1155 32.9347 -0 0 -0
346 3 11.1946 20.0334 30.7722 0 -0 0
349 3 10.2438 18.0892 36.2971 -0 0 -0
353 3 8.75856 20.0409 35.7765 -0 0 -0
354 3 10.1782 20.9818 35.2922 -0 -0 0
355 3 10.7726 22.8344 31.9479 -0 0 0
356 3 11.2889 21.4422 32.8689 0 0 0
361 3 10.6654 19.3057 33.4947 -0 0 0
362 3 9.27752 18.3569 33.9976 0 0 -0
363 3 8.50103 21.8202 31.5503 -0 -0 -0
366 3 7.68362 20.0722 33.1856 -0 -0 0
382 2 10.6771 16.3563 32.0188 0 0 -0
408 3 10.775 17.4384 31.9327 -0 -0 -0
416 3 8.50123 16.4329 31.5492 -0 0 0
327 2 10.7515 19.6686 37.6935 -0 -0 -0
351 3 9.74264 19.7821 38.0904 0 0 -0
352 3 11.2095 20.6571 37.6597 0 0 -0
359 3 11.1239 17.7565 38.6424 -0 0 -0
360 3 11.431 19.1552 39.6656 0 -0 -0
849 4 0.4236 -0.67781 4.05101 0 0 0
852 5 5.86521 -0.23036 5.83006 -0 -0 -0
909 4 0.42359 26.2722 4.05101 -0 -0 0
910 5 1.47957 28.9741 4.05355 0 0 -0
911 4 3.66434 28.5309 5.82985 0 -0 -0
912 5 5.8652 26.7196 5.83008 0 -0 -0
921 4 8.04556 -0.67793 4.05153 0 -0 0
981 4 8.04555 26.2721 4.05152 0 -0 -0
982 5 9.10331 28.9736 4.05373 -0 -0 -0
983 4 11.2854 28.5314 5.829 0 0 0
913 4 7.18802 27.4245 8.23404 -0 0 0
914 5 2.34194 27.8205 8.2373 0 -0 0
915 4 3.37651 27.421 10.8183 -0 0 0
916 5 6.15387 27.8256 10.8222 0 -0 -0
986 5 9.96542 27.82 8.23962 0 0 -0
987 4 10.9994 27.4216 10.8157 0 -0 0
858 5 2.05581 -0.23134 13.2271 0 0 0
859 4 4.23265 -0.6774 15.0055 0 -0 0
917 4 7.47344 28.5313 13.2262 -0 0 -0
918 5 2.05579 26.7186 13.2271 -0 0 0
919 4 4.23264 26.2726 15.0055 0 0 0
920 5 5.29249 28.9737 15.0031 -0 -0 0
930 5 9.67671 -0.23119 13.2283 -0 -0 -0
990 5 9.67669 26.7188 13.2283 -0 -0 -0
936 5 13.4903 5.15916 5.82962 -0 -0 0
994 5 16.7271 2.0235 4.05416 0 -0 0
995 4 18.9058 1.58169 5.83025 0 -0 -0
1005 4 15.6668 4.71259 4.05178 0 0 -0
1006 5 16.7271 7.41348 4.05416 0 0 0
1007 4 18.9057 6.9717 5.83025 0 -0 -0
1008 5 21.1128 5.1583 5.82782 -0 -0 0
925 4 14.8084 0.47458 8.23533 0 0 -0
928 5 13.7764 0.87522 10.8207 0 -0 -0
937 4 14.8084 5.86459 8.23537 0 -0 -0
940 5 13.7764 6.26522 10.8207 0 0 0
997 4 22.4307 0.47559 8.24064 -0 -0 0
998 5 17.5901 0.87102 8.23573 -0 0 -0
999 4 18.6219 0.47088 10.8195 -0 0 -0
1000 5 21.3995 0.87421 10.815 -0 0 -0
1009 4 22.4307 5.8656 8.24068 -0 -0 -0
1010 5 17.59 6.26102 8.2357 -0 -0 -0
1011 4 18.6219 5.86087 10.8195 0 -0 0
1012 5 21.3995 6.26421 10.815 -0 0 0
929 4 15.0972 1.58096 13.2264 0 -0 0
932 5 12.9143 2.02372 15.0035 0 -0 -0
941 4 15.0972 6.97094 13.2264 0 -0 0
943 4 11.8562 4.71222 15.0059 -0 0 -0
944 5 12.9143 7.41373 15.0035 -0 0 0
1001 4 22.7207 1.58156 13.2287 0 -0 0
1004 5 20.5367 2.02391 15.0036 0 0 0
1013 4 22.7207 6.97154 13.2287 0 -0 0
1014 5 17.2991 5.15945 13.2266 -0 -0 -0
1015 4 19.4795 4.71228 15.006 -0 0 0
1016 5 20.5367 7.41392 15.0036 -0 0 0
266 1 18.9058 5.15631 20.7041 0 0 -0
267 1 17.1196 5.68529 21.7118 0 0 0
277 2 18.2478 5.54786 24.3494 0 -0 -0
283 2 18.9415 5.05715 23.0503 0 -0 0
285 2 18.4402 5.79322 21.7752 -0 -0 0
304 3 17.198 5.25546 24.3259 -0 -0 0
305 3 18.2952 6.63649 24.3766 0 -0 -0
314 3 18.8022 3.98011 22.9572 -0 -0 -0
315 3 20.0114 5.25102 23.1269 0 0 -0
845 3 12.3785 5.25319 23.1181 -0 -0 -0
268 2 18.9047 4.94211 28.1719 0 -0 -0
269 2 18.2203 5.48061 29.4504 0 0 0
270 2 18.2233 5.49766 26.9027 0 0 0
272 2 18.9122 4.97158 25.6213 0 0 0
286 3 18.8503 3.85351 28.1634 0 -0 -0
287 3 19.9541 5.23673 28.1717 0 0 -0
288 3 18.2624 6.56973 29.4385 -0 -0 -0
289 3 17.1737 5.17645 29.4342 0 -0 0
290 3 18.2728 6.58651 26.9092 -0 0 0
291 3 17.1738 5.20355 26.8897 -0 -0 -0
294 3 19.9626 5.26228 25.6347 0 -0 -0
295 3 18.8555 3.88328 25.599 -0 0 -0
817 3 12.3312 5.23675 28.1715 0 -0 0
824 3 12.3393 5.26219 25.6337 0 0 0
243 3 17.8655 7.3098 36.2978 0 -0 0
256 3 16.8984 7.57695 33.9979 -0 0 0
271 2 18.8997 4.9479 30.7311 0 0 0
273 2 18.275 2.92963 36.2539 -0 -0 0
275 2 17.3819 3.80534 35.3453 0 -0 0
276 2 18.2996 5.57702 32.0186 0 0 0
279 2 17.2882 3.19753 33.9189 -0 0 -0
280 2 16.8058 5.29714 32.3209 0 -0 -0
282 2 16.3642 3.94425 32.9371 -0 0 -0
292 3 19.9593 5.20045 30.6916 -0 0 -0
293 3 18.8189 3.8616 30.7701 0 0 -0
296 3 17.8667 1.91994 36.2971 -0 0 0
297 3 19.2707 2.87404 35.8138 0 0 0
300 3 16.382 3.87147 35.7742 0 -0 0
301 3 17.8011 4.80989 35.2883 -0 0 -0
302 3 18.3952 6.65938 31.9322 -0 -0 0
303 3 18.9121 5.27543 32.8683 0 -0 -0
308 3 18.2863 3.12882 33.4861 0 0 0
309 3 16.9007 2.18119 33.9891 0 0 -0
310 3 16.1225 5.65693 31.5517 0 0 -0
313 3 15.3035 3.90614 33.1855 -0 0 0
822 3 12.3369 5.20058 30.6915 -0 0 -0
827 3 11.649 2.8741 35.8135 0 0 -0
225 2 19.1731 7.9805 38.6575 -0 -0 -0
228 2 20.688 7.90432 38.325 0 -0 0
231 2 21.4634 7.08007 39.3712 0 -0 -0
253 3 18.7459 6.97784 38.6428 0 -0 -0
258 3 20.8339 7.43964 37.3499 0 -0 -0
263 3 21.0781 6.06104 39.4062 -0 0 -0
264 3 21.3642 7.53412 40.3571 -0 0 0
265 3 22.5195 7.04693 39.1035 0 -0 0
274 2 18.3736 3.50043 37.6935 0 0 -0
278 2 19.1731 2.59134 38.6572 -0 0 -0
281 2 20.6883 2.51612 38.3254 -0 0 -0
284 2 21.4637 1.69175 39.3715 -0 -0 -0
298 3 17.3648 3.61483 38.0901 0 0 -0
299 3 18.8322 4.4886 37.6583 -0 0 0
306 3 18.747 1.58821 38.6418 0 0 0
307 3 19.053 2.98699 39.6657 0 -0 -0
311 3 20.8345 2.05146 37.3503 0 -0 -0
312 3 21.1036 3.52309 38.2848 0 0 -0
316 3 21.079 0.672464 39.406 -0 0 0
317 3 21.3641 2.14515 40.3578 -0 -0 0
318 3 22.5199 1.65886 39.1042 0 -0 -0
437 2 11.551 7.98062 38.6571 0 -0 -0
440 2 13.0658 7.90434 38.3248 0 0 0
443 2 13.8408 7.08004 39.3711 -0 -0 0
470 3 13.2121 7.4396 37.3497 0 0 0
475 3 13.4557 6.06094 39.4063 -0 0 -0
476 3 13.7417 7.53413 40.357 0 -0 0
477 3 14.897 7.04692 39.1036 -0 0 0
808 2 11.5509 2.5914 38.6568 -0 0 0
811 2 13.066 2.5161 38.3252 0 0 0
814 2 13.8411 1.69171 39.3715 -0 -0 -0
841 3 13.2127 2.0514 37.3502 -0 0 -0
842 3 13.4816 3.52296 38.2849 0 -0 -0
846 3 13.4566 0.67235 39.4061 0 -0 0
847 3 13.7416 2.14514 40.3577 0 -0 -0
848 3 14.8973 1.65884 39.1043 0 0 -0
948 5 13.4903 10.5492 5.82963 -0 -0 0
960 5 13.4903 15.9392 5.82965 -0 -0 0
1017 4 15.6668 10.1026 4.05178 -0 -0 -0
1018 5 16.7272 12.8035 4.05415 -0 -0 0
1019 4 18.9057 12.3617 5.83023 -0 -0 -0
1020 5 21.1128 10.5483 5.82783 0 0 -0
1029 4 15.6668 15.4926 4.05178 -0 -0 0
1032 5 21.1128 15.9383 5.82786 0 -0 -0
949 4 14.8084 11.2546 8.23531 -0 -0 -0
952 5 13.7764 11.6552 10.8207 0 0 -0
1021 4 22.4307 11.2556 8.24064 -0 0 -0
1022 5 17.5901 11.651 8.23575 0 0 0
1023 4 18.6219 11.2509 10.8195 0 -0 0
1024 5 21.3995 11.6542 10.815 0 -0 -0
953 4 15.0972 12.3609 13.2264 -0 0 0
955 4 11.8562 10.1022 15.0059 0 0 0
956 5 12.9143 12.8037 15.0035 -0 0 0
967 4 11.8562 15.4922 15.006 -0 0 -0
1025 4 22.7207 12.3615 13.2287 -0 -0 -0
1026 5 17.2991 10.5495 13.2266 0 -0 -0
1027 4 19.4795 10.1023 15.006 0 0 0
1028 5 20.5367 12.8039 15.0036 0 0 -0
1038 5 17.2991 15.9395 13.2266 -0 -0 -0
1039 4 19.4795 15.4923 15.006 0 0 0
177 2 18.9389 15.8068 23.0608 0 0 0
198 3 17.1963 16.0273 24.329 -0 0 -0
208 3 18.82 14.726 22.985 0 0 -0
209 3 20.0046 16.0283 23.1191 -0 -0 0
213 1 18.921 10.6627 20.6653 0 -0 -0
214 1 17.1096 11.2111 21.7266 -0 0 0
224 2 18.2473 10.9319 24.3508 -0 0 -0
230 2 18.9399 10.4326 23.0548 0 0 0
232 2 18.4342 11.1739 21.7866 -0 -0 -0
251 3 17.1974 10.6401 24.3274 0 0 -0
252 3 18.2959 12.0206 24.3727 0 -0 0
261 3 18.8081 9.3543 22.9657 -0 0 0
262 3 20.0085 10.6363 23.1246 0 -0 0
421 3 12.3724 16.0302 23.1116 -0 -0 0
474 3 12.3745 10.6401 23.1144 -0 -0 -0
160 1 18.9433 16.156 20.6337 0 -0 0
162 2 18.9045 15.7218 28.173 -0 -0 -0
166 2 18.912 15.7512 25.6249 0 -0 -0
180 3 18.8493 14.6333 28.1629 -0 -0 -0
181 3 19.9545 16.0144 28.172 0 -0 0
183 3 17.1739 15.9539 29.4339 0 -0 0
185 3 17.174 15.9812 26.8903 -0 0 -0
188 3 19.9627 16.0412 25.6358 -0 0 -0
189 3 18.8554 14.6629 25.6039 -0 0 0
215 2 18.9045 10.331 28.1729 0 -0 -0
216 2 18.22 10.8694 29.4512 -0 -0 0
217 2 18.2229 10.8872 26.9041 0 -0 -0
219 2 18.9122 10.3602 25.6237 -0 -0 0
233 3 18.8498 9.2424 28.163 -0 0 0
234 3 19.9541 10.6249 28.1718 -0 0 -0
235 3 18.2621 11.9585 29.4387 -0 0 -0
236 3 17.1736 10.5646 29.4339 0 -0 -0
237 3 18.2722 11.9761 26.9096 -0 0 -0
238 3 17.1738 10.5918 26.8899 -0 0 -0
241 3 19.9626 10.6509 25.6354 0 -0 -0
242 3 18.8556 9.2719 25.6017 0 0 -0
393 3 12.3314 16.0145 28.1717 0 -0 -0
400 3 12.3395 16.0408 25.6345 -0 -0 0
446 3 12.3311 10.625 28.1716 -0 -0 -0
453 3 12.3393 10.6508 25.6341 -0 -0 -0
165 2 18.8987 15.7266 30.7317 0 -0 0
167 2 18.2749 13.7091 36.2551 0 -0 0
169 2 17.3811 14.5876 35.35 0 0 -0
173 2 17.2868 13.9834 33.9249 0 0 -0
174 2 16.8046 16.082 32.324 0 0 0
176 2 16.3645 14.7301 32.9428 -0 -0 0
186 3 19.9587 15.9776 30.6915 0 0 -0
187 3 18.8174 14.6403 30.7696 -0 0 -0
190 3 17.8656 12.6998 36.2977 -0 0 -0
191 3 19.2699 13.6524 35.8135 0 0 0
194 3 16.3807 14.6522 35.7778 -0 -0 -0
195 3 17.8011 15.5917 35.2919 -0 -0 -0
197 3 18.9126 16.0544 32.8682 -0 0 0
202 3 18.286 13.9172 33.4945 0 0 -0
203 3 16.8979 12.9677 33.9972 -0 0 0
207 3 15.3017 14.6801 33.1794 0 -0 0
218 2 18.899 10.3363 30.7317 0 0 -0
220 2 18.2747 8.31916 36.2549 -0 -0 0
222 2 17.3808 9.1976 35.3496 -0 0 0
223 2 18.2993 10.9663 32.0191 0 -0 -0
226 2 17.2865 8.59286 33.9245 -0 0 -0
227 2 16.805 10.6893 32.3231 0 -0 -0
229 2 16.3642 9.33668 32.94 0 0 -0
239 3 19.9587 10.5884 30.6914 -0 -0 0
240 3 18.8181 9.25001 30.7697 -0 -0 -0
244 3 19.2698 8.26277 35.8136 0 -0 -0
247 3 16.3804 9.26259 35.7775 0 -0 0
248 3 17.8008 10.2018 35.2914 -0 0 0
249 3 18.396 12.0485 31.9317 -0 -0 -0
250 3 18.9127 10.6649 32.8683 -0 -0 0
255 3 18.2861 8.52732 33.4948 -0 0 -0
257 3 16.124 11.0418 31.5485 -0 -0 -0
260 3 15.3023 9.29301 33.182 -0 -0 0
398 3 12.3363 15.978 30.6913 0 0 0
403 3 11.6482 13.6527 35.8133 -0 0 0
451 3 12.3363 10.5887 30.6913 0 0 0
456 3 11.6481 8.26295 35.8133 0 -0 0
168 2 18.3739 14.2796 37.6942 -0 -0 0
172 2 19.1732 13.3706 38.6576 -0 -0 -0
175 2 20.6881 13.2944 38.325 0 -0 0
178 2 21.4634 12.4701 39.3712 -0 -0 -0
192 3 17.3649 14.3939 38.0905 -0 -0 -0
193 3 18.8326 15.2678 37.6584 0 -0 0
200 3 18.746 12.3679 38.6426 0 -0 0
201 3 19.0533 13.7665 39.666 0 -0 0
205 3 20.8338 12.8294 37.35 0 -0 0
206 3 21.1037 14.3012 38.284 -0 0 0
210 3 21.0781 11.4511 39.4061 -0 0 0
211 3 21.3642 12.924 40.3572 -0 -0 -0
212 3 22.5195 12.4368 39.1034 -0 -0 -0
221 2 18.3738 8.8896 37.6941 -0 -0 0
245 3 17.3649 9.00413 38.0905 -0 -0 0
246 3 18.8326 9.87771 37.6584 -0 -0 -0
254 3 19.0534 8.37671 39.6659 -0 0 0
259 3 21.1035 8.9112 38.2842 -0 -0 -0
384 2 11.551 13.3707 38.6571 0 -0 0
387 2 13.0658 13.2944 38.3248 -0 -0 -0
390 2 13.8408 12.4701 39.3711 0 -0 -0
417 3 13.212 12.8294 37.3499 0 0 -0
418 3 13.4817 14.3011 38.2841 0 -0 -0
422 3 13.4557 11.451 39.4062 -0 0 -0
423 3 13.7418 12.924 40.3571 -0 0 -0
424 3 14.8969 12.4368 39.1035 0 0 0
471 3 13.4816 8.9111 38.2843 0 -0 -0
972 5 13.4903 21.3292 5.82966 0 0 0
1030 5 16.7272 18.1935 4.05414 0 -0 -0
1031 4 18.9057 17.7517 5.83021 0 -0 0
1041 4 15.6668 20.8826 4.05178 0 -0 0
1042 5 16.7272 23.5835 4.05414 -0 -0 -0
1043 4 18.9058 23.1417 5.83021 0 0 0
1044 5 21.1128 21.3283 5.82787 0 0 0
961 4 14.8084 16.6446 8.23521 0 0 0
964 5 13.7764 17.0452 10.8208 -0 -0 -0
973 4 14.8084 22.0346 8.23517 0 -0 0
976 5 13.7764 22.4353 10.8209 -0 0 0
1033 4 22.4307 16.6456 8.24057 0 -0 -0
1034 5 17.5901 17.041 8.23583 -0 0 -0
1035 4 18.6219 16.6409 10.8194 0 -0 0
1036 5 21.3995 17.0442 10.8151 -0 -0 0
1045 4 22.4307 22.0356 8.24053 0 -0 0
1046 5 17.5901 22.431 8.23586 0 0 0
1047 4 18.6219 22.0309 10.8193 0 0 0
1048 5 21.3995 22.4342 10.8151 -0 -0 -0
965 4 15.0972 17.7509 13.2264 -0 -0 0
968 5 12.9143 18.1937 15.0035 -0 0 0
977 4 15.0972 23.141 13.2264 -0 0 -0
979 4 11.8562 20.8822 15.006 0 -0 0
980 5 12.9143 23.5837 15.0035 -0 0 -0
1037 4 22.7207 17.7515 13.2287 0 -0 -0
1040 5 20.5367 18.1939 15.0036 0 0 0
1049 4 22.7207 23.1415 13.2286 -0 -0 -0
1050 5 17.2991 21.3295 13.2266 -0 0 -0
1051 4 19.4795 20.8823 15.006 -0 -0 0
1052 5 20.5367 23.5839 15.0036 -0 -0 0
107 1 19.014 21.7679 20.6368 -0 -0 0
108 1 17.1526 22.3445 21.7608 -0 -0 0
118 2 18.2421 21.705 24.3479 -0 0 0
124 2 18.9333 21.1752 23.0634 -0 0 -0
126 2 18.2913 21.6548 21.7393 -0 0 0
145 3 17.1918 21.414 24.3309 -0 0 -0
146 3 18.2952 22.7937 24.3571 0 -0 -0
155 3 18.861 20.0878 23.0438 0 -0 0
156 3 19.9893 21.444 23.0875 0 0 -0
368 3 12.3674 21.4292 23.1 -0 -0 -0
161 1 17.1042 16.7223 21.7344 -0 0 0
171 2 18.2463 16.3187 24.3513 0 0 -0
179 2 18.4141 16.5185 21.789 0 0 0
199 3 18.2963 17.4074 24.368 0 0 0
109 2 18.9044 21.1112 28.173 0 0 0
110 2 18.2195 21.6497 29.4516 -0 -0 -0
111 2 18.2222 21.6679 26.9045 -0 -0 0
113 2 18.9107 21.1422 25.6236 -0 -0 0
127 3 18.8489 20.0227 28.1632 0 0 0
128 3 19.9547 21.4027 28.1724 0 0 0
129 3 18.2605 22.7388 29.4393 0 0 -0
130 3 17.1738 21.3424 29.4346 -0 -0 0
131 3 18.2704 22.7568 26.9109 -0 -0 0
132 3 17.174 21.3693 26.8909 -0 -0 0
135 3 19.9617 21.4311 25.6344 -0 -0 0
136 3 18.855 20.0538 25.6056 0 0 -0
163 2 18.2199 16.2599 29.4513 -0 -0 0
164 2 18.2226 16.2785 26.9047 -0 0 -0
182 3 18.2615 17.3491 29.4392 0 -0 -0
184 3 18.2713 17.3674 26.9102 -0 -0 0
340 3 12.3316 21.4029 28.1723 0 -0 -0
347 3 12.3391 21.4303 25.6347 -0 -0 0
112 2 18.897 21.1197 30.7339 -0 0 -0
114 2 18.2748 19.0981 36.2547 0 0 -0
116 2 17.3809 19.9767 35.3494 -0 0 -0
117 2 18.2976 21.7519 32.0232 -0 -0 0
120 2 17.287 19.373 33.9239 0 -0 0
121 2 16.8028 21.4777 32.3304 -0 0 -0
123 2 16.3659 20.1198 32.9399 -0 0 0
133 3 19.9575 21.3684 30.693 0 -0 0
134 3 18.8158 20.0334 30.7721 0 -0 0
137 3 17.8655 18.0888 36.2974 0 0 -0
138 3 19.2699 19.0413 35.8135 0 -0 0
141 3 16.3804 20.0402 35.7772 -0 -0 0
142 3 17.8 20.9814 35.293 -0 0 0
143 3 18.3949 22.8349 31.9473 0 -0 -0
144 3 18.9112 21.4427 32.8693 -0 -0 -0
149 3 18.2866 19.3059 33.4945 -0 0 -0
150 3 16.8981 18.3574 33.9969 -0 -0 0
151 3 16.124 21.8158 31.5474 0 -0 0
154 3 15.3039 20.0688 33.1798 -0 0 -0
170 2 18.2993 16.3568 32.0193 -0 0 0
196 3 18.397 17.4389 31.932 -0 0 0
204 3 16.1241 16.4287 31.5463 0 0 -0
345 3 12.3351 21.3689 30.6929 0 0 -0
350 3 11.648 19.0417 35.8133 -0 0 -0
115 2 18.3734 19.6682 37.6942 0 -0 -0
119 2 19.173 18.7592 38.6575 -0 0 -0
122 2 20.688 18.6836 38.3252 -0 0 -0
125 2 21.4634 17.8594 39.3713 0 -0 -0
139 3 17.3644 19.7815 38.0905 0 -0 -0
140 3 18.8311 20.6569 37.6598 -0 0 -0
147 3 18.746 17.7564 38.6425 0 -0 0
148 3 19.053 19.155 39.666 0 0 0
152 3 20.834 18.2188 37.3501 0 0 0
153 3 21.1032 19.6906 38.2849 0 0 0
157 3 21.0781 16.8403 39.4062 0 0 -0
158 3 21.3642 18.3132 40.3573 -0 0 0
159 3 22.5195 17.8261 39.1035 -0 0 -0
331 2 11.5507 18.7594 38.6571 -0 -0 -0
334 2 13.0656 18.6836 38.3249 0 0 0
337 2 13.8408 17.8594 39.3712 0 0 -0
364 3 13.2121 18.2189 37.3499 -0 -0 0
365 3 13.4812 19.6905 38.285 -0 0 -0
369 3 13.4557 16.8402 39.4063 0 -0 0
370 3 13.7417 18.3132 40.3572 0 0 -0
371 3 14.8969 17.8262 39.1036 -0 -0 -0
924 5 13.4903 -0.23082 5.82964 0 -0 0
984 5 13.4903 26.7192 5.82965 0 0 -0
993 4 15.6668 -0.67743 4.05178 0 -0 0
996 5 21.1128 -0.23168 5.82784 0 0 -0
1053 4 15.6668 26.2726 4.05178 -0 -0 -0
1054 5 16.7271 28.9735 4.05415 -0 0 -0
1055 4 18.9058 28.5317 5.83023 -0 0 -0
1056 5 21.1128 26.7183 5.82787 0 0 -0
985 4 14.8084 27.4246 8.23523 0 -0 0
988 5 13.7764 27.8252 10.8208 0 -0 0
1057 4 22.4307 27.4256 8.24057 -0 0 0
1058 5 17.5901 27.821 8.23581 -0 -0 0
1059 4 18.6219 27.4209 10.8194 -0 0 -0
1060 5 21.3995 27.8242 10.8151 0 0 -0
931 4 11.8562 -0.67776 15.0059 -0 0 0
989 4 15.0972 28.531 13.2264 -0 -0 0
991 4 11.8562 26.2722 15.0059 -0 -0 0
992 5 12.9143 28.9737 15.0035 0 0 -0
1002 5 17.2991 -0.23056 13.2266 0 0 0
1003 4 19.4795 -0.67771 15.006 -0 -0 -0
1061 4 22.7207 28.5316 13.2287 0 -0 -0
1062 5 17.2991 26.7194 13.2266 0 0 -0
1063 4 19.4795 26.2723 15.006 -0 -0 0
1064 5 20.5367 28.9739 15.0036 -0 0 0
1066 5 24.3493 2.02356 4.05416 0 0 0
1067 4 26.5286 1.58105 5.83159 0 0 0
1077 4 23.289 4.71262 4.05153 -0 0 0
1078 5 24.3493 7.41354 4.05415 -0 0 0
1079 4 26.5286 6.97105 5.83159 -0 0 -0
1080 5 28.7333 5.15819 5.82583 0 -0 0
1138 5 31.9709 2.02376 4.0537 -0 -0 0
1139 4 34.1527 1.58052 5.83223 0 -0 0
1149 4 30.9125 4.71238 4.05093 0 -0 -0
1150 5 31.9709 7.41375 4.0537 0 -0 0
1151 4 34.1527 6.97052 5.83223 0 -0 0
1069 4 30.0547 0.47651 8.24453 -0 0 0
1070 5 25.2112 0.87189 8.22936 -0 -0 -0
1071 4 26.2457 0.46981 10.826 0 0 -0
1072 5 29.0214 0.87338 10.8112 -0 0 0
1081 4 30.0547 5.86652 8.24456 -0 -0 0
1082 5 25.2112 6.26189 8.2293 -0 0 -0
1083 4 26.2457 5.85979 10.8261 -0 -0 -0
1084 5 29.0214 6.26338 10.8112 -0 0 0
1142 5 32.832 0.87222 8.2266 -0 0 -0
1143 4 33.8683 0.4693 10.8289 -0 0 -0
1154 5 32.832 6.26223 8.22654 0 -0 0
1155 4 33.8683 5.85929 10.829 -0 0 -0
1073 4 30.3434 1.58228 13.2308 0 0 -0
1076 5 28.1596 2.02392 15.0039 -0 0 -0
1085 4 30.3434 6.97227 13.2308 0 -0 -0
1086 5 24.9218 5.15988 13.2247 0 0 0
1087 4 27.1021 4.71234 15.0062 -0 -0 0
1088 5 28.1596 7.41394 15.0039 -0 0 0
1158 5 32.5456 5.15974 13.2245 -0 -0 -0
54 1 26.5868 5.17036 20.7124 0 0 0
55 1 24.7646 5.67904 21.6942 -0 -0 0
65 2 25.8712 5.54763 24.3492 0 0 0
71 2 26.5693 5.05572 23.053 0 -0 0
73 2 26.0772 5.79163 21.7754 -0 -0 0
92 3 24.8216 5.2546 24.3245 0 -0 -0
93 3 25.9165 6.63636 24.3758 -0 -0 0
102 3 26.428 3.97897 22.9596 0 -0 0
103 3 27.639 5.24951 23.1321 -0 -0 0
685 3 34.056 3.97319 22.966 0 0 0
638 1 32.4159 5.69396 21.6606 -0 0 -0
648 2 33.4937 5.54624 24.3493 -0 -0 -0
654 2 34.1978 5.04991 23.0591 0 -0 0
656 2 33.7177 5.78797 21.7819 0 -0 0
675 3 32.4443 5.25248 24.3238 0 -0 0
676 3 33.5368 6.63509 24.3747 -0 0 0
56 2 26.5281 4.94227 28.1719 0 0 0
57 2 25.8436 5.48074 29.4503 0 0 -0
58 2 25.8465 5.49791 26.9027 0 0 -0
60 2 26.5356 4.97194 25.6215 0 0 -0
74 3 26.4723 3.85374 28.1634 0 0 -0
75 3 27.5776 5.23653 28.1719 -0 0 -0
76 3 25.8842 6.56991 29.4384 0 0 0
77 3 24.7971 5.17627 29.4341 0 0 0
78 3 25.8946 6.58683 26.9093 -0 0 0
79 3 24.7972 5.20333 26.8896 -0 0 -0
82 3 27.5861 5.26233 25.6351 -0 0 0
83 3 26.4778 3.88369 25.5994 -0 -0 -0
639 2 34.1509 4.9426 28.1712 -0 -0 0
640 2 33.4663 5.481 29.4495 -0 -0 -0
641 2 33.4693 5.49852 26.9024 -0 0 0
643 2 34.1586 4.97241 25.6219 -0 0 0
657 3 34.0938 3.85412 28.1636 0 -0 0
659 3 33.5057 6.57023 29.4387 0 0 -0
660 3 32.4199 5.17601 29.4341 0 0 0
661 3 33.5156 6.58751 26.9098 -0 0 -0
662 3 32.4202 5.20294 26.8898 0 -0 0
666 3 34.0997 3.8842 25.6009 0 0 0
31 3 25.4878 7.31006 36.298 0 0 -0
44 3 24.52 7.57727 33.9979 0 -0 0
59 2 26.523 4.94805 30.7309 0 -0 0
61 2 25.898 2.9296 36.254 0 -0 -0
63 2 25.0049 3.80529 35.3456 0 0 -0
64 2 25.9228 5.57736 32.0182 -0 0 -0
67 2 24.9113 3.19735 33.9193 0 -0 0
68 2 24.4294 5.29665 32.3198 -0 -0 -0
70 2 23.9879 3.94479 32.938 0 0 -0
80 3 27.5827 5.20023 30.6918 0 0 0
81 3 26.4409 3.86186 30.7702 -0 -0 0
84 3 25.489 1.92018 36.2973 -0 -0 0
85 3 26.8935 2.87369 35.8137 0 0 0
88 3 24.0048 3.87107 35.774 0 -0 -0
89 3 25.4233 4.81016 35.2885 0 -0 -0
90 3 26.0169 6.65986 31.9319 -0 0 -0
91 3 26.5344 5.27584 32.8685 0 -0 0
96 3 25.9091 3.12812 33.4861 -0 0 0
97 3 24.5224 2.18148 33.9892 -0 -0 0
98 3 23.7439 5.65663 31.5526 -0 -0 -0
101 3 22.9267 3.90607 33.184 0 0 -0
614 3 33.1095 7.31041 36.2983 -0 0 -0
627 3 32.142 7.57734 33.9986 -0 -0 -0
642 2 34.1457 4.9483 30.7301 -0 0 0
644 2 33.5203 2.9297 36.2538 0 0 -0
646 2 32.6273 3.80543 35.3452 0 -0 -0
647 2 33.5452 5.57748 32.0171 -0 -0 -0
650 2 32.5339 3.19717 33.9189 0 -0 0
651 2 32.0523 5.29494 32.3176 -0 -0 -0
653 2 31.611 3.94337 32.9362 -0 0 -0
664 3 34.0626 3.86221 30.7702 -0 -0 0
667 3 33.1109 1.92044 36.2975 -0 -0 0
671 3 31.6271 3.87081 35.7737 0 -0 0
672 3 33.0453 4.81051 35.2887 0 -0 0
673 3 33.6381 6.6602 31.9323 -0 0 -0
674 3 34.1557 5.27565 32.8682 0 -0 0
679 3 33.532 3.1272 33.4865 0 0 0
680 3 32.1444 2.18163 33.9898 0 -0 0
681 3 31.3635 5.65807 31.5549 -0 0 0
684 3 30.5505 3.90718 33.1853 -0 -0 0
13 2 26.7961 7.98052 38.6576 -0 -0 -0
16 2 28.311 7.90432 38.325 0 0 -0
19 2 29.0863 7.08004 39.3712 0 -0 0
41 3 26.3684 6.97803 38.6428 -0 0 -0
46 3 28.4563 7.43957 37.3498 -0 0 0
51 3 28.7006 6.06116 39.4063 -0 -0 0
52 3 28.9866 7.53409 40.3571 -0 0 -0
53 3 30.1424 7.04675 39.1037 0 0 0
62 2 25.9965 3.50043 37.6935 -0 -0 -0
66 2 26.796 2.59137 38.6572 0 -0 -0
69 2 28.3112 2.51612 38.3254 -0 0 -0
72 2 29.0865 1.69173 39.3715 0 -0 0
86 3 24.9876 3.61448 38.0899 -0 -0 -0
87 3 26.4546 4.48889 37.6584 -0 0 0
94 3 26.3695 1.58839 38.6418 0 0 -0
95 3 26.6755 2.98698 39.6657 -0 0 -0
99 3 28.457 2.0514 37.3503 -0 -0 -0
100 3 28.7261 3.52325 38.2848 -0 -0 -0
104 3 28.7015 0.67258 39.406 0 0 0
105 3 28.9865 2.14511 40.3577 -0 0 -0
106 3 30.1428 1.6587 39.1044 0 0 -0
624 3 33.99 6.97807 38.6431 0 0 0
645 2 33.6187 3.50045 37.6934 0 0 0
669 3 32.6097 3.61432 38.0899 -0 0 -0
670 3 34.0766 4.48898 37.6588 0 -0 -0
677 3 33.9912 1.58832 38.6421 0 -0 -0
678 3 34.2973 2.98693 39.6658 -0 0 -0
1089 4 23.289 10.1026 4.05153 -0 0 0
1090 5 24.3493 12.8035 4.05416 -0 0 -0
1091 4 26.5286 12.3611 5.83158 0 0 -0
1092 5 28.7333 10.5482 5.82584 0 0 0
1101 4 23.289 15.4927 4.05154 0 -0 0
1104 5 28.7334 15.9382 5.82588 0 -0 0
1161 4 30.9125 10.1024 4.05093 0 0 -0
1162 5 31.9709 12.8037 4.05371 0 -0 0
1163 4 34.1527 12.3605 5.83222 0 -0 -0
1173 4 30.9125 15.4924 4.05095 0 -0 -0
1093 4 30.0547 11.2565 8.24453 -0 0 0
1094 5 25.2112 11.6519 8.22936 -0 0 -0
1095 4 26.2457 11.2498 10.826 0 -0 -0
1096 5 29.0214 11.6534 10.8112 -0 0 0
1166 5 32.832 11.6522 8.22659 0 -0 -0
1167 4 33.8683 11.2493 10.8289 0 -0 0
1097 4 30.3434 12.3622 13.2308 0 -0 -0
1098 5 24.9218 10.5499 13.2248 -0 -0 -0
1099 4 27.1021 10.1023 15.0062 0 -0 -0
1100 5 28.1596 12.804 15.0039 -0 -0 -0
1110 5 24.9218 15.9399 13.2248 0 -0 0
1111 4 27.1021 15.4923 15.0062 0 0 -0