Created by /home/rramji/scripts/createLammpsInput.pl on Thu Jan 26 11:42:38 2023

          54 atoms
          53 bonds
         100 angles
         141 dihedrals
           9 impropers

           6 atom types
           8 bond types
           3 angle types
           7 dihedral types
           1 improper types

		   0.000000  17.822900 xlo xhi
		   0.000000  14.290300 ylo yhi
		   0.000000  10.372100 zlo zhi

Masses

    1 1.5999E+01 # O_R    
    2 1.5999E+01 # O_2    
    3 1.2011E+01 # C_3    
    4 1.2011E+01 # C_R    
    5 1.0080E+00 # H_     
    6 1.0080E+00 # H___A  

Pair Coeffs

    1    0.09570    3.03315 # O_R O_R 
    2    0.09570    3.03315 # O_2 O_2 
    3    0.09510    3.47299 # C_3 C_3 
    4    0.09510    3.47299 # C_R C_R 
    5    0.01520    2.84642 # H_ H_ 
    6          0    2.84642 # H___A H___A 

Bond Coeffs

    1      525     1.35 # O_R C_R 
    2      350     0.98 # O_R H___A 
    3      700     1.25 # O_2 C_R 
    4      350     1.53 # C_3 C_3 
    5      350     1.09 # C_3 H_ 
    6      350     1.46 # C_R C_3 
    7      525     1.39 # C_R C_R 
    8      350     1.02 # C_R H_ 

Angle Coeffs

    1       50      120 # X C_R X 
    2       50  109.471 # X C_3 X 
    3       50      120 # X O_R X 

Dihedral Coeffs

    1 0.0833333       -1        6 # C_R C_R C_3 X 
    2 0.0833333       -1        6 # O_2 C_R C_3 X 
    3 0.0833333       -1        6 # O_R C_R C_3 X 
    4 0.111111        1        3 # X C_3 C_3 X 
    5 0.166667        1        3 # X C_R C_3 X 
    6    3.125       -1        2 # X C_R C_R X 
    7     6.25       -1        2 # X O_R C_R X 

Improper Coeffs

    1  13.3333        0 # C_R X X X 

Atoms

       1        1        1 -0.48060000   -5.35100   -1.29710   -0.20700    0    0    0
       2        1        2 -0.25100000   -3.98340   -1.79580   -1.94900    0    0    0
       3        1        3 -0.05300000    1.86680   -2.47050    1.35150    0    0    0
       4        1        3 -0.05280000    3.25100   -2.83380    0.80250    0    0    0
       5        1        3 -0.05300000    0.79910   -2.33910    0.26260    0    0    0
       6        1        3 -0.04960000    3.89390   -1.79590   -0.12300    0    0    0
       7        1        3 -0.05260000   -0.59730   -2.03350    0.81500    0    0    0
       8        1        3 -0.05280000    0.33890    2.46670   -0.39370    0    0    0
       9        1        3 -0.05310000   -0.21890    3.52170    0.56500    0    0    0
      10        1        3 -0.04960000    1.87160    2.45050   -0.36790    0    0    0
      11        1        3 -0.03480000    4.05460   -0.41830    0.52450    0    0    0
      12        1        3 -0.04300000   -1.67800   -1.97740   -0.27040    0    0    0
      13        1        3 -0.05330000   -1.74620    3.62970    0.52820    0    0    0
      14        1        3 -0.03480000    2.47550    1.38720   -1.29140    0    0    0
      15        1        4 -0.08790000    4.67990    0.55440   -0.43330    0    0    0
      16        1        3 -0.05590000   -2.45740    2.35080    0.97280    0    0    0
      17        1        4 -0.08790000    3.97560    1.35920   -1.24260    0    0    0
      18        1        3  0.04480000   -3.06030   -1.65760    0.30140    0    0    0
      19        1        3 -0.06530000   -3.96920    2.50560    0.90640    0    0    0
      20        1        4  0.30470000   -4.14510   -1.60680   -0.75150    0    0    0
      21        1        5  0.02650000    1.91340   -1.55220    1.94630    0    0    0
      22        1        5  0.02650000    1.56110   -3.26380    2.04560    0    0    0
      23        1        5  0.02650000    3.92210   -3.00440    1.65390    0    0    0
      24        1        5  0.02650000    3.18600   -3.78880    0.26660    0    0    0
      25        1        5  0.02650000    0.75900   -3.27270   -0.31230    0    0    0
      26        1        5  0.02650000    1.07390   -1.54770   -0.44070    0    0    0
      27        1        5  0.02680000    3.30600   -1.71790   -1.04520    0    0    0
      28        1        5  0.02680000    4.88060   -2.17120   -0.42490    0    0    0
      29        1        5  0.02650000   -0.86920   -2.79990    1.55120    0    0    0
      30        1        5  0.02650000   -0.56920   -1.07530    1.34860    0    0    0
      31        1        5  0.02650000   -0.00920    2.66970   -1.41330    0    0    0
      32        1        5  0.02650000   -0.02290    1.47080   -0.11620    0    0    0
      33        1        5  0.02650000    0.20240    4.50150    0.30830    0    0    0
      34        1        5  0.02650000    0.10440    3.29670    1.58870    0    0    0
      35        1        5  0.02680000    2.24860    3.43960   -0.65870    0    0    0
      36        1        5  0.02680000    2.20900    2.27670    0.66180    0    0    0
      37        1        5  0.03070000    4.70120   -0.49810    1.40710    0    0    0
      38        1        5  0.03070000    3.09840   -0.03670    0.89270    0    0    0
      39        1        5  0.02700000   -1.40740   -1.21850   -1.01530    0    0    0
      40        1        5  0.02700000   -1.71370   -2.93700   -0.80110    0    0    0
      41        1        5  0.02650000   -2.06440    3.89420   -0.48780    0    0    0
      42        1        5  0.02650000   -2.05230    4.45720    1.18000    0    0    0
      43        1        5  0.03070000    2.04690    0.40780   -1.06330    0    0    0
      44        1        5  0.03070000    2.17680    1.59660   -2.32650    0    0    0
      45        1        5  0.05690000    5.76530    0.59290   -0.46970    0    0    0
      46        1        5  0.02630000   -2.17410    1.51360    0.32800    0    0    0
      47        1        5  0.02630000   -2.16030    2.09350    1.99570    0    0    0
      48        1        5  0.05690000    4.50970    2.04150   -1.89840    0    0    0
      49        1        5  0.03770000   -3.03410   -0.68920    0.81030    0    0    0
      50        1        5  0.03770000   -3.33930   -2.42760    1.02970    0    0    0
      51        1        5  0.02300000   -4.29700    2.72310   -0.11520    0    0    0
      52        1        5  0.02300000   -4.30930    3.31730    1.55750    0    0    0
      53        1        5  0.02300000   -4.45970    1.58240    1.23060    0    0    0
      54        1        6  0.29510000   -6.05760   -1.25170   -0.88600    0    0    0


Bonds

       1        1        1       20 
       2        2        1       54 
       3        3        2       20 
       4        4        3        4 
       5        4        3        5 
       6        5        3       21 
       7        5        3       22 
       8        4        4        6 
       9        5        4       23 
      10        5        4       24 
      11        4        5        7 
      12        5        5       25 
      13        5        5       26 
      14        4        6       11 
      15        5        6       27 
      16        5        6       28 
      17        4        7       12 
      18        5        7       29 
      19        5        7       30 
      20        4        8        9 
      21        4        8       10 
      22        5        8       31 
      23        5        8       32 
      24        4        9       13 
      25        5        9       33 
      26        5        9       34 
      27        4       10       14 
      28        5       10       35 
      29        5       10       36 
      30        6       11       15 
      31        5       11       37 
      32        5       11       38 
      33        4       12       18 
      34        5       12       39 
      35        5       12       40 
      36        4       13       16 
      37        5       13       41 
      38        5       13       42 
      39        6       14       17 
      40        5       14       43 
      41        5       14       44 
      42        7       15       17 
      43        8       15       45 
      44        4       16       19 
      45        5       16       46 
      46        5       16       47 
      47        8       17       48 
      48        6       18       20 
      49        5       18       49 
      50        5       18       50 
      51        5       19       51 
      52        5       19       52 
      53        5       19       53 

Angles

       1        1        2       20        1 
       2        1        2       20       18 
       3        2        3        4       23 
       4        2        3        4       24 
       5        2        3        5       25 
       6        2        3        5       26 
       7        2        4        3       21 
       8        2        4        3       22 
       9        2        4        6       11 
      10        2        4        6       27 
      11        2        4        6       28 
      12        2        5        3        4 
      13        2        5        3       21 
      14        2        5        3       22 
      15        2        5        7       12 
      16        2        5        7       29 
      17        2        5        7       30 
      18        2        6        4        3 
      19        2        6        4       23 
      20        2        6        4       24 
      21        2        6       11       15 
      22        2        6       11       37 
      23        2        6       11       38 
      24        2        7        5        3 
      25        2        7        5       25 
      26        2        7        5       26 
      27        2        7       12       18 
      28        2        7       12       39 
      29        2        7       12       40 
      30        2        8        9       13 
      31        2        8        9       33 
      32        2        8        9       34 
      33        2        8       10       14 
      34        2        8       10       35 
      35        2        8       10       36 
      36        2        9        8       10 
      37        2        9        8       31 
      38        2        9        8       32 
      39        2        9       13       16 
      40        2        9       13       41 
      41        2        9       13       42 
      42        1       15       17       14 
      43        2       17       14       10 
      44        1       17       15       11 
      45        1       18       20        1 
      46        2       19       16       13 
      47        2       20       18       12 
      48        2       22        3       21 
      49        2       24        4       23 
      50        2       26        5       25 
      51        2       27        6       11 
      52        2       28        6       11 
      53        2       28        6       27 
      54        2       29        7       12 
      55        2       30        7       12 
      56        2       30        7       29 
      57        2       31        8       10 
      58        2       32        8       10 
      59        2       32        8       31 
      60        2       33        9       13 
      61        2       34        9       13 
      62        2       34        9       33 
      63        2       35       10       14 
      64        2       36       10       14 
      65        2       36       10       35 
      66        2       37       11       15 
      67        2       38       11       15 
      68        2       38       11       37 
      69        2       39       12       18 
      70        2       40       12       18 
      71        2       40       12       39 
      72        2       41       13       16 
      73        2       42       13       16 
      74        2       42       13       41 
      75        2       43       14       10 
      76        2       43       14       17 
      77        2       44       14       10 
      78        2       44       14       17 
      79        2       44       14       43 
      80        1       45       15       11 
      81        1       45       15       17 
      82        2       46       16       13 
      83        2       46       16       19 
      84        2       47       16       13 
      85        2       47       16       19 
      86        2       47       16       46 
      87        1       48       17       14 
      88        1       48       17       15 
      89        2       49       18       12 
      90        2       49       18       20 
      91        2       50       18       12 
      92        2       50       18       20 
      93        2       50       18       49 
      94        2       51       19       16 
      95        2       52       19       16 
      96        2       52       19       51 
      97        2       53       19       16 
      98        2       53       19       51 
      99        2       53       19       52 
     100        3       54        1       20 

Dihedrals

       1        2        2       20       18       12 
       2        4        3        4        6       11 
       3        4        3        4        6       27 
       4        4        3        4        6       28 
       5        4        3        5        7       12 
       6        4        3        5        7       29 
       7        4        3        5        7       30 
       8        4        4        3        5       25 
       9        4        4        3        5       26 
      10        4        4        6       11       15 
      11        4        4        6       11       37 
      12        4        4        6       11       38 
      13        4        5        3        4       23 
      14        4        5        3        4       24 
      15        4        5        7       12       18 
      16        4        5        7       12       39 
      17        4        5        7       12       40 
      18        4        6        4        3        5 
      19        4        6        4        3       21 
      20        4        6        4        3       22 
      21        1        6       11       15       17 
      22        5        6       11       15       45 
      23        4        7        5        3        4 
      24        4        7        5        3       21 
      25        4        7        5        3       22 
      26        4        7       12       18       20 
      27        4        7       12       18       49 
      28        4        7       12       18       50 
      29        4        8        9       13       16 
      30        4        8        9       13       41 
      31        4        8        9       13       42 
      32        4        8       10       14       17 
      33        4        8       10       14       43 
      34        4        8       10       14       44 
      35        4        9        8       10       14 
      36        4        9        8       10       35 
      37        4        9        8       10       36 
      38        4        9       13       16       19 
      39        4        9       13       16       46 
      40        4        9       13       16       47 
      41        3       12       18       20        1 
      42        4       13        9        8       10 
      43        6       14       17       15       11 
      44        1       15       17       14       10 
      45        4       23        4        3       21 
      46        4       23        4        3       22 
      47        4       23        4        6       11 
      48        4       24        4        3       21 
      49        4       24        4        3       22 
      50        4       24        4        6       11 
      51        4       25        5        3       21 
      52        4       25        5        3       22 
      53        4       25        5        7       12 
      54        4       26        5        3       21 
      55        4       26        5        3       22 
      56        4       26        5        7       12 
      57        4       27        6        4       23 
      58        4       27        6        4       24 
      59        4       27        6       11       15 
      60        4       28        6        4       23 
      61        4       28        6        4       24 
      62        4       28        6       11       15 
      63        4       29        7        5       25 
      64        4       29        7        5       26 
      65        4       29        7       12       18 
      66        4       30        7        5       25 
      67        4       30        7        5       26 
      68        4       30        7       12       18 
      69        4       31        8        9       13 
      70        4       31        8       10       14 
      71        4       32        8        9       13 
      72        4       32        8       10       14 
      73        4       33        9        8       10 
      74        4       33        9        8       31 
      75        4       33        9        8       32 
      76        4       33        9       13       16 
      77        4       34        9        8       10 
      78        4       34        9        8       31 
      79        4       34        9        8       32 
      80        4       34        9       13       16 
      81        4       35       10        8       31 
      82        4       35       10        8       32 
      83        4       35       10       14       17 
      84        4       36       10        8       31 
      85        4       36       10        8       32 
      86        4       36       10       14       17 
      87        4       37       11        6       27 
      88        4       37       11        6       28 
      89        1       37       11       15       17 
      90        4       38       11        6       27 
      91        4       38       11        6       28 
      92        1       38       11       15       17 
      93        4       39       12        7       29 
      94        4       39       12        7       30 
      95        4       39       12       18       20 
      96        4       40       12        7       29 
      97        4       40       12        7       30 
      98        4       40       12       18       20 
      99        4       41       13        9       33 
     100        4       41       13        9       34 
     101        4       41       13       16       19 
     102        4       42       13        9       33 
     103        4       42       13        9       34 
     104        4       42       13       16       19 
     105        4       43       14       10       35 
     106        4       43       14       10       36 
     107        1       43       14       17       15 
     108        4       44       14       10       35 
     109        4       44       14       10       36 
     110        1       44       14       17       15 
     111        5       45       15       11       37 
     112        5       45       15       11       38 
     113        6       45       15       17       14 
     114        4       46       16       13       41 
     115        4       46       16       13       42 
     116        4       47       16       13       41 
     117        4       47       16       13       42 
     118        5       48       17       14       10 
     119        5       48       17       14       43 
     120        5       48       17       14       44 
     121        6       48       17       15       11 
     122        6       48       17       15       45 
     123        4       49       18       12       39 
     124        4       49       18       12       40 
     125        3       49       18       20        1 
     126        2       49       18       20        2 
     127        4       50       18       12       39 
     128        4       50       18       12       40 
     129        3       50       18       20        1 
     130        2       50       18       20        2 
     131        4       51       19       16       13 
     132        4       51       19       16       46 
     133        4       51       19       16       47 
     134        4       52       19       16       13 
     135        4       52       19       16       46 
     136        4       52       19       16       47 
     137        4       53       19       16       13 
     138        4       53       19       16       46 
     139        4       53       19       16       47 
     140        7       54        1       20        2 
     141        7       54        1       20       18 

Impropers

       1        1       15       11       17       45 
       2        1       15       45       11       17 
       3        1       15       17       45       11 
       4        1       17       14       15       48 
       5        1       17       48       14       15 
       6        1       17       15       48       14 
       7        1       20        1        2       18 
       8        1       20       18        1        2 
       9        1       20        2       18        1 
