ITEM: TIMESTEP
0
ITEM: NUMBER OF ATOMS
432
ITEM: BOX BOUNDS pp pp pp
-2.0223399999999998e+00 4.7647511000000002e+01
-2.0223399999999998e+00 3.2115000999999999e+01
-2.0223399999999998e+00 2.3101209999999998e+01
ITEM: ATOMS id type xu yu zu vx vy vz
1 1 1.10655 0.853463 0.410684 0 -0 -0
2 2 2.8864 2.34177 0.844478 0 0 0
13 1 0.709303 5.84166 0.332047 -0 -0 -0
15 1 3.85929 5.37061 4.04287 0 0 0
3 1 4.66952 0.529629 4.09645 0 -0 0
4 2 6.26931 2.26028 4.22231 0 -0 -0
73 1 7.83055 0.855319 0.549121 -0 -0 0
74 2 9.27606 2.4062 1.58605 0 0 -0
85 1 7.07604 5.63989 0.247199 0 0 0
76 2 13.7837 2.34903 4.03536 0 0 0
145 1 15.5987 0.800208 0.564134 -0 0 -0
157 1 14.8764 5.65007 0.238812 0 0 -0
88 2 13.3426 6.49326 3.95562 0 -0 -0
146 2 16.992 2.39172 1.61107 0 -0 -0
148 2 21.4276 2.32976 4.04034 0 0 0
160 2 20.9974 6.5011 3.95414 0 -0 0
229 1 22.4929 5.64559 0.231743 0 0 -0
14 2 2.87993 6.76207 0.438426 0 0 -0
25 1 1.12212 10.8497 0.425682 0 0 0
26 2 2.88793 12.3502 0.874129 0 0 0
27 1 4.40752 10.3499 4.11606 0 -0 0
16 2 5.92198 6.51527 4.1102 0 0 -0
86 2 8.91829 6.58377 1.38042 -0 -0 -0
97 1 7.60173 10.6921 0.676314 -0 -0 0
98 2 9.03985 12.2786 1.66872 -0 -0 -0
100 2 13.3875 12.1794 4.06381 -0 -0 -0
169 1 15.3956 10.6863 0.673486 0 0 -0
158 2 16.6991 6.63403 1.36951 -0 0 0
170 2 16.7748 12.303 1.69993 -0 0 0
172 2 21.019 12.1713 4.07718 -0 -0 -0
6 2 3.65615 2.53545 7.64791 -0 -0 -0
365 1 1.74415 1.15166 7.61518 -0 0 -0
377 1 1.34309 5.99024 7.61154 0 -0 -0
5 1 7.76982 0.952619 7.79079 0 -0 -0
17 1 7.0676 5.30381 7.74386 -0 0 0
78 2 9.67617 2.31925 7.52882 -0 0 0
75 1 12.0042 0.824796 4.31887 -0 0 -0
87 1 11.2869 5.45582 4.47264 -0 0 0
77 1 15.4742 1.12716 7.70913 0 0 0
89 1 14.8213 5.57343 7.66847 0 -0 -0
147 1 19.6701 0.782744 4.33793 0 -0 0
159 1 18.9585 5.42588 4.46053 -0 0 -0
150 2 17.4343 2.43444 7.56843 -0 -0 0
161 1 22.4238 5.55892 7.66998 -0 0 0
18 2 3.4244 7.10245 7.65682 0 0 -0
30 2 3.62455 12.4172 7.68162 0 -0 -0
389 1 1.71867 11.0262 7.61748 0 -0 0
28 2 5.96104 12.1193 4.27715 0 0 -0
29 1 7.46624 10.4912 7.76884 0 -0 0
90 2 9.08473 6.52852 7.75724 -0 0 0
102 2 9.13668 12.1402 7.52325 0 -0 0
99 1 11.727 10.5285 4.35926 -0 -0 -0
101 1 15.3106 10.7132 7.65369 0 0 -0
171 1 19.396 10.4803 4.35367 0 0 -0
162 2 16.9489 6.58813 7.78414 -0 -0 -0
174 2 17.138 12.2057 7.59515 0 0 0
10 2 3.45207 2.57491 14.7355 0 -0 -0
19 1 3.64289 5.30338 11.2741 0 -0 0
369 1 1.6568 1.08731 15.1036 0 -0 0
381 1 1.25973 6.01811 15.1597 -0 -0 -0
7 1 4.50117 0.605599 11.2845 -0 0 -0
8 2 6.17685 2.26129 11.4304 0 0 -0
9 1 8.18271 0.646166 14.7184 0 -0 0
21 1 7.294 5.22813 14.5953 0 -0 -0
82 2 9.86508 2.26125 15.0807 -0 0 0
94 2 9.2769 6.39341 15.1242 0 0 0
79 1 11.5928 1.15441 11.3565 -0 0 -0
80 2 13.5706 2.43514 11.4943 0 0 0
81 1 15.8528 0.795689 14.7209 -0 -0 0
91 1 10.9348 5.60306 11.3868 0 -0 0
93 1 15.1524 5.44551 14.6039 -0 -0 0
151 1 19.2852 1.12112 11.3437 0 -0 0
152 2 21.2429 2.43187 11.4857 0 0 0
154 2 17.6162 2.33653 15.0155 -0 0 -0
163 1 18.6219 5.55867 11.3872 -0 -0 0
166 2 17.2014 6.50536 15.1017 0 -0 -0
165 1 22.7638 5.42778 14.5939 0 -0 0
22 2 3.41401 6.95097 14.9154 0 0 -0
34 2 3.39095 12.5172 14.6882 -0 0 -0
393 1 1.6523 10.9651 15.061 0 -0 -0
31 1 4.20783 10.405 11.2771 0 0 -0
20 2 5.62431 6.58513 11.2511 -0 -0 0
32 2 5.86515 12.0843 11.3351 0 0 0
33 1 7.78077 10.34 14.6354 0 -0 -0
106 2 9.33674 12.0634 15.0584 0 0 -0
92 2 13.0896 6.55933 11.2762 0 -0 -0
103 1 11.4194 10.7505 11.4151 -0 -0 0
104 2 13.2881 12.1912 11.4692 0 0 0
105 1 15.592 10.4956 14.7159 -0 0 -0
164 2 20.7431 6.58671 11.2723 -0 0 -0
175 1 19.1037 10.7034 11.394 0 -0 0
176 2 20.9254 12.2025 11.4625 -0 -0 0
178 2 17.2252 12.1795 14.9755 -0 -0 -0
23 1 3.89729 5.7128 18.8915 -0 -0 -0
11 1 4.47951 0.777331 18.5423 0 0 -0
12 2 6.0224 2.37899 17.7522 0 0 -0
83 1 11.754 0.801061 18.509 -0 -0 -0
84 2 13.1353 2.38558 17.436 -0 -0 0
95 1 10.9911 5.65121 18.7715 -0 0 -0
155 1 19.4095 0.801078 18.4971 0 -0 0
156 2 20.8074 2.39037 17.453 0 0 -0
167 1 18.6859 5.6458 18.8282 0 -0 0
35 1 4.37521 10.7235 18.4881 -0 -0 -0
24 2 5.88483 6.66227 18.0445 -0 0 -0
36 2 5.94552 12.3112 17.7245 -0 0 -0
96 2 12.8531 6.62263 17.6951 -0 0 0
107 1 11.5232 10.6828 18.3692 -0 -0 0
108 2 12.9054 12.2982 17.3445 -0 -0 0
168 2 20.5009 6.63123 17.6865 -0 -0 0
179 1 19.1994 10.6844 18.3853 0 0 0
180 2 20.5808 12.2991 17.3585 -0 -0 -0
37 1 1.07787 16.2863 0.420537 0 -0 -0
38 2 2.86856 17.7678 0.831947 -0 0 -0
49 1 1.19584 21.8329 0.446531 -0 0 -0
50 2 3.06088 23.2341 0.805679 -0 -0 -0
39 1 4.35613 15.8376 4.09794 -0 0 -0
51 1 4.49864 21.3786 4.11199 -0 -0 0
109 1 7.53499 16.165 0.644935 0 0 0
110 2 9.01183 17.7096 1.64625 -0 -0 -0
121 1 7.65919 21.7139 0.626294 -0 0 -0
122 2 9.1737 23.1788 1.68906 -0 0 -0
112 2 13.3843 17.5785 4.06957 -0 0 -0
124 2 13.6973 22.8636 4.14999 -0 0 -0
181 1 15.3309 16.1548 0.632802 0 -0 0
193 1 15.4882 21.6907 0.574521 0 -0 0
182 2 16.7437 17.734 1.67192 0 -0 -0
184 2 21.0136 17.5756 4.08012 -0 -0 0
194 2 16.8968 23.206 1.70968 -0 -0 -0
196 2 21.3357 22.8681 4.16252 -0 0 0
61 1 0.561058 26.6922 0.276418 0 -0 -0
62 2 2.85169 27.1897 0.00348476 -0 -0 -0
63 1 3.69592 26.0951 3.8172 0 0 -0
64 2 5.89896 26.9374 3.89818 -0 0 -0
133 1 7.01727 26.4101 -0.0202768 0 -0 0
134 2 9.02921 27.1219 0.98651 0 -0 0
136 2 13.3642 26.8406 3.7853 0 0 -0
205 1 14.8405 26.4923 -0.0236961 0 -0 0
206 2 16.9398 27.1337 0.842689 -0 0 0
208 2 21.0237 26.8493 3.77102 0 0 -0
277 1 22.445 26.4858 -0.0415099 0 -0 -0
42 2 3.58841 17.8377 7.68664 -0 -0 -0
54 2 3.79917 23.3607 7.68589 0 0 0
401 1 1.72269 16.3934 7.62119 -0 0 0
413 1 1.86475 22.0098 7.62298 -0 -0 -0
40 2 5.94141 17.5777 4.26733 0 -0 0
52 2 6.22154 22.9725 4.35873 -0 0 -0
41 1 7.41504 15.9598 7.7658 -0 0 -0
53 1 7.64331 21.447 7.82451 0 0 0
114 2 9.14283 17.552 7.54318 0 0 -0
126 2 9.56839 22.7914 7.58635 -0 0 0
111 1 11.6537 16.0024 4.37157 -0 -0 0
123 1 11.8083 21.4611 4.33541 -0 0 0
113 1 15.2618 16.1479 7.65357 -0 -0 0
125 1 15.4212 21.6702 7.73355 0 -0 -0
183 1 19.3177 15.9595 4.36654 0 -0 0
195 1 19.4717 21.4322 4.3456 -0 -0 -0
186 2 17.1116 17.6134 7.61817 0 0 -0
198 2 17.4169 22.9263 7.63514 -0 0 -0
66 2 3.2828 27.3575 7.60538 0 -0 -0
425 1 1.03649 26.6346 7.60636 -0 0 -0
65 1 7.07062 25.9315 7.64422 0 0 0
138 2 9.22993 26.8653 7.82379 0 -0 0
135 1 11.1812 26.1079 4.30147 -0 -0 0
137 1 14.8053 26.1636 7.56718 0 0 0
207 1 18.8431 26.1031 4.27841 0 -0 0
210 2 17.0208 26.9353 7.82192 -0 0 0
209 1 22.4008 26.1458 7.56177 -0 -0 0
46 2 3.38215 17.9143 14.7057 -0 0 0
58 2 3.59694 23.3092 14.667 0 0 -0
405 1 1.60901 16.3994 15.069 -0 0 -0
417 1 1.71293 21.9393 15.0478 0 0 -0
43 1 4.20372 15.8134 11.283 -0 0 0
55 1 4.42041 21.3853 11.2255 -0 -0 0
44 2 5.80879 17.5433 11.3202 0 -0 0
45 1 7.68832 15.8313 14.616 -0 0 -0
56 2 6.13448 23.0044 11.3289 0 0 0
57 1 7.87013 21.3226 14.6694 0 0 -0
118 2 9.33244 17.467 15.0537 -0 0 0
130 2 9.70256 22.7765 14.9828 -0 -0 0
115 1 11.3758 16.1861 11.4132 0 -0 -0
116 2 13.2726 17.5902 11.4451 -0 0 -0
117 1 15.5141 15.9718 14.7041 -0 -0 0
127 1 11.5204 21.7048 11.3416 0 0 0
128 2 13.5477 22.9104 11.4258 0 0 0
129 1 15.6652 21.4471 14.7098 0 0 -0
187 1 19.0546 16.1424 11.3951 -0 0 -0
188 2 20.9036 17.6085 11.4393 -0 0 -0
190 2 17.2155 17.585 14.9734 -0 0 -0
199 1 19.2229 21.6553 11.3169 0 0 0
200 2 21.2134 22.9192 11.4204 0 -0 0
202 2 17.535 22.8755 14.8923 0 0 -0
67 1 3.39119 25.9731 11.3812 0 -0 0
70 2 3.32811 27.2586 15.2058 0 0 -0
429 1 1.03676 26.6948 15.2122 0 -0 0
68 2 5.49892 27.021 11.2117 -0 -0 -0
69 1 7.18513 25.9151 14.6908 -0 0 -0
142 2 9.29819 26.7865 15.2768 -0 0 0
139 1 10.9353 26.1912 11.5058 0 -0 -0
140 2 13.1654 26.9158 11.2399 -0 0 -0
141 1 15.0443 26.1217 14.7858 -0 -0 0
211 1 18.602 26.1461 11.4952 -0 -0 -0
212 2 20.8125 26.9298 11.2341 -0 -0 -0
214 2 17.231 26.8539 15.2871 -0 0 0
213 1 22.649 26.1035 14.7753 0 -0 -0
47 1 4.33675 16.1799 18.5233 0 0 0
59 1 4.44662 21.725 18.4996 0 -0 0
48 2 5.92902 17.745 17.7586 0 -0 -0
60 2 6.07732 23.2562 17.7476 0 0 -0
119 1 11.4625 16.155 18.4084 -0 0 -0
120 2 12.8793 17.7325 17.3723 0 -0 0
131 1 11.6284 21.6913 18.489 -0 -0 0
132 2 13.029 23.1893 17.3214 -0 -0 0
191 1 19.136 16.1534 18.4239 0 0 0
192 2 20.5491 17.7328 17.3854 -0 -0 -0
203 1 19.2934 21.6919 18.4838 -0 0 0
204 2 20.7076 23.2057 17.3537 0 0 -0
71 1 3.79422 26.4903 19.2849 0 -0 0
72 2 5.83571 27.2015 18.3382 0 -0 0
143 1 10.9762 26.5028 18.9958 0 -0 -0
144 2 13.1312 27.1085 18.2486 -0 -0 -0
215 1 18.6403 26.4854 19.1037 0 -0 -0
216 2 20.7207 27.1346 18.1985 -0 -0 0
217 1 23.221 0.801297 0.558792 0 0 -0
218 2 24.6186 2.39081 1.6029 0 0 -0
232 2 28.6068 6.48846 3.957 -0 -0 -0
220 2 29.0332 2.32389 4.02779 -0 -0 0
289 1 30.8305 0.794416 0.548391 0 -0 0
290 2 32.2346 2.37029 1.60436 -0 0 0
301 1 30.1217 5.64056 0.235999 -0 0 -0
292 2 36.8562 2.39974 4.21033 -0 0 -0
361 1 38.2813 0.630598 0.600909 -0 0 0
362 2 39.6705 2.37559 1.37074 0 0 -0
373 1 37.5822 5.68772 0.191361 -0 0 0
364 2 42.5896 1.73658 4.0949 -0 -0 0
376 2 42.1774 6.0856 3.99204 0 -0 -0
230 2 24.3088 6.63283 1.37066 0 0 0
241 1 23.0085 10.6859 0.672787 0 -0 -0
242 2 24.3882 12.3009 1.70151 0 0 -0
244 2 28.6272 12.1664 4.062 0 -0 -0
302 2 31.941 6.60438 1.38935 -0 -0 0
313 1 30.6317 10.6644 0.670877 -0 0 0
314 2 32.0163 12.275 1.69966 -0 -0 -0
304 2 36.4355 6.63643 4.03005 -0 -0 0
316 2 36.4414 12.2684 4.22321 -0 0 0
374 2 39.3348 6.91388 1.18834 0 -0 0
385 1 37.9562 10.7997 0.571175 0 0 -0
386 2 39.3319 12.5025 1.4524 0 -0 -0
388 2 42.117 11.7362 4.24596 0 -0 0
219 1 27.2792 0.776072 4.34083 -0 -0 0
231 1 26.5646 5.42025 4.46514 0 -0 0
149 1 23.0907 1.1196 7.71397 -0 0 -0
222 2 25.0468 2.43266 7.57105 -0 0 0
291 1 35.0501 0.883368 4.30838 -0 -0 -0
303 1 34.3826 5.53922 4.41875 0 -0 -0
221 1 30.7315 1.13898 7.70566 -0 -0 0
233 1 30.1008 5.57114 7.67108 -0 0 0
294 2 32.7163 2.40699 7.55146 0 -0 -0
363 1 41.1676 -0.122761 4.39572 -0 -0 -0
375 1 40.2069 4.89548 4.50972 -0 -0 0
293 1 38.2028 0.887434 7.78041 0 0 -0
305 1 37.5587 5.53643 7.73839 0 -0 -0
366 2 40.0553 2.34695 7.68963 -0 -0 0
243 1 27.0069 10.4758 4.35606 0 -0 0
173 1 22.9084 10.7046 7.66205 0 0 0
234 2 24.5449 6.58724 7.78419 -0 0 -0
246 2 24.7305 12.2032 7.59417 -0 -0 -0
315 1 34.7965 10.5785 4.31673 0 0 -0
245 1 30.5674 10.7169 7.65163 -0 -0 0
306 2 32.2564 6.5268 7.76979 0 0 0
318 2 32.4151 12.183 7.56801 0 -0 -0
390 2 39.6313 12.4097 7.6963 0 -0 -0
387 1 40.613 9.92691 4.42982 -0 -0 -0
378 2 39.4058 7.00428 7.79952 0 0 -0
317 1 37.8862 10.822 7.7607 -0 -0 0
153 1 23.4781 0.783087 14.718 0 0 0
223 1 26.8803 1.10986 11.3414 0 -0 -0
224 2 28.8359 2.42234 11.4952 -0 0 -0
226 2 25.2341 2.33171 15.0153 -0 0 -0
235 1 26.2178 5.55263 11.3867 -0 0 -0
238 2 24.8026 6.50178 15.1031 -0 0 -0
225 1 31.1305 0.81625 14.7238 -0 -0 -0
237 1 30.4186 5.41851 14.5983 -0 0 -0
295 1 34.783 1.23795 11.3607 -0 0 -0
298 2 32.9207 2.3222 15.0365 0 0 -0
307 1 34.1364 5.65627 11.3782 0 -0 -0
310 2 32.4742 6.47815 15.0689 0 0 -0
296 2 36.774 2.50218 11.4526 -0 0 0
297 1 38.5233 0.541978 14.7698 0 0 0
309 1 37.6928 5.29011 14.6905 0 0 -0
370 2 40.1538 2.23796 14.9571 0 0 -0
367 1 40.8722 0.3155 11.2457 -0 0 0
379 1 40.0309 5.06897 11.2525 -0 0 -0
368 2 42.4853 1.99899 11.6102 -0 -0 -0
380 2 41.9915 6.33453 11.6024 -0 -0 0
177 1 23.2038 10.4829 14.7013 0 0 0
236 2 28.3466 6.56545 11.2772 0 -0 -0
247 1 26.7018 10.6925 11.3946 0 -0 0
248 2 28.5152 12.201 11.4734 -0 0 0
250 2 24.828 12.1727 14.978 -0 -0 0
249 1 30.845 10.4933 14.7091 -0 -0 -0
319 1 34.6294 10.8663 11.4036 -0 -0 -0
322 2 32.4941 12.1556 15.0047 -0 0 -0
308 2 36.2015 6.79612 11.3015 0 0 0
320 2 36.5059 12.298 11.4169 -0 0 0
321 1 38.1365 10.3768 14.7386 0 -0 0
382 2 39.6516 6.56236 15.0277 0 0 -0
394 2 39.6674 12.1622 14.9339 -0 0 -0
391 1 40.4771 10.2153 11.2191 0 -0 -0
392 2 41.9168 12.062 11.5123 0 0 0
227 1 27.025 0.798455 18.4995 0 -0 -0
228 2 28.4217 2.38719 17.453 0 -0 0
239 1 26.2957 5.64239 18.8266 -0 -0 0
299 1 34.7494 0.820166 18.4873 -0 0 0
311 1 34.024 5.69266 18.7826 0 -0 -0
300 2 36.1531 2.43421 17.4899 0 -0 0
371 1 41.3811 0.413238 18.65 -0 -0 -0
383 1 40.6855 5.46034 18.8666 -0 0 -0
372 2 42.8634 2.09186 17.9052 -0 -0 -0
384 2 42.5831 6.36741 17.7962 0 -0 0
240 2 28.1076 6.62198 17.6749 -0 -0 -0
251 1 26.8125 10.6807 18.3851 0 0 -0
252 2 28.1903 12.2971 17.3563 0 -0 0
323 1 34.5274 10.727 18.38 -0 -0 -0
312 2 35.9286 6.74889 17.8737 0 0 -0
324 2 35.9193 12.39 17.4491 0 -0 -0
395 1 41.1062 10.4344 18.5373 -0 0 -0
396 2 42.5613 12.1462 17.8149 0 0 -0
253 1 22.9453 16.1543 0.633653 0 -0 0
254 2 24.3568 17.7346 1.6728 -0 0 0
256 2 28.6198 17.5696 4.06743 -0 0 0
265 1 23.1014 21.692 0.572678 0 -0 0
266 2 24.5142 23.2057 1.70488 0 0 -0
268 2 28.9455 22.8588 4.15134 0 -0 -0
325 1 30.5713 16.139 0.633746 -0 -0 -0
326 2 31.9837 17.7152 1.67785 -0 -0 0
337 1 30.7392 21.6886 0.575141 0 0 -0
338 2 32.1546 23.1859 1.72572 0 0 0
328 2 36.4685 17.6819 4.23644 -0 0 0
340 2 36.7768 22.9533 4.2451 0 -0 -0
397 1 37.9288 16.2876 0.536539 0 0 0
398 2 39.3186 17.9755 1.42408 0 0 0
409 1 38.0116 21.7837 0.449962 -0 0 0
410 2 39.4735 23.4136 1.3295 -0 -0 0
400 2 42.147 17.1675 4.18789 -0 -0 0
412 2 42.3054 22.3452 4.0602 -0 -0 0
278 2 24.5284 27.1346 0.856932 -0 0 -0
280 2 28.636 26.8429 3.78926 0 -0 -0
349 1 30.109 26.4893 -0.0147374 -0 0 -0
350 2 32.2053 27.112 0.872072 -0 0 -0
351 1 34.2687 26.1784 4.24652 0 0 -0
352 2 36.4358 26.8906 3.64224 0 0 -0
421 1 37.4699 26.6835 -0.284287 -0 -0 0
422 2 39.4313 27.43 0.794938 -0 0 -0
424 2 42.1557 27.4297 3.8497 0 0 0
255 1 26.9252 15.955 4.36938 -0 0 -0
267 1 27.079 21.4281 4.34828 0 0 0
185 1 22.86 16.1434 7.66168 -0 0 -0
197 1 23.025 21.6546 7.73996 -0 0 0
258 2 24.7091 17.6095 7.6181 0 -0 -0
270 2 25.0149 22.9194 7.63552 0 0 0
327 1 34.7413 16.0758 4.3233 -0 -0 -0
339 1 34.889 21.5384 4.31251 0 0 0
257 1 30.5156 16.157 7.65149 -0 -0 -0
269 1 30.6853 21.6755 7.73201 0 0 0
330 2 32.396 17.582 7.58879 0 -0 -0
342 2 32.7092 22.8847 7.62273 0 -0 0
399 1 40.5262 15.4703 4.43606 -0 -0 -0
411 1 40.5005 20.8609 4.38897 -0 0 -0
329 1 37.8957 16.1963 7.76391 0 0 0
341 1 38.0162 21.6829 7.82257 -0 -0 0
402 2 39.5641 17.8641 7.68933 0 -0 -0
414 2 39.8396 23.1786 7.73353 0 0 -0
279 1 26.4518 26.0988 4.28371 -0 0 -0
282 2 24.6113 26.9295 7.82321 -0 0 -0
281 1 30.1019 26.1582 7.57022 -0 0 -0
354 2 32.3342 26.892 7.78863 -0 -0 0
426 2 39.4211 27.4123 7.87505 -0 -0 -0
423 1 40.4633 25.8767 4.38996 -0 0 -0
353 1 37.3581 26.3218 7.52272 -0 0 -0
189 1 23.1257 15.9618 14.6891 -0 0 0
201 1 23.277 21.4334 14.7102 0 -0 0
259 1 26.6478 16.1342 11.3942 -0 -0 -0
260 2 28.4937 17.6038 11.4521 -0 -0 0
262 2 24.8224 17.5772 14.9752 0 -0 0
271 1 26.8157 21.647 11.3156 0 0 0
272 2 28.8082 22.9064 11.4335 0 0 0
274 2 25.1417 22.8683 14.8937 0 0 -0
261 1 30.7735 15.9705 14.6983 -0 0 0
273 1 30.9472 21.4604 14.7182 -0 -0 0
331 1 34.6059 16.2839 11.4054 -0 -0 -0
334 2 32.4882 17.5648 14.9955 0 0 0
343 1 34.7466 21.788 11.3327 0 -0 0
346 2 32.8437 22.8508 14.9188 0 -0 0
332 2 36.4745 17.7259 11.3927 0 0 -0
333 1 38.0798 15.8661 14.7458 0 0 0
344 2 36.7089 23.0967 11.4175 -0 0 -0
345 1 38.2198 21.3486 14.7773 0 0 -0
406 2 39.6687 17.6003 14.9392 -0 0 -0
418 2 39.9189 22.981 14.9107 0 -0 -0
403 1 40.3828 15.7946 11.2205 -0 0 0
415 1 40.4823 21.1894 11.2477 -0 0 0
404 2 42.0002 17.4813 11.5491 0 -0 0
416 2 42.2979 22.6665 11.548 -0 0 0
283 1 26.2101 26.1486 11.4946 0 -0 0
284 2 28.4255 26.9178 11.2317 -0 -0 -0
286 2 24.829 26.849 15.2863 0 -0 -0
285 1 30.2912 26.0841 14.7714 -0 -0 0
355 1 33.9713 26.1945 11.4714 -0 0 0
358 2 32.4796 26.8351 15.236 -0 0 0
356 2 36.1441 27.0835 11.232 0 0 0
357 1 37.57 26.2078 14.852 0 -0 0
430 2 39.7164 27.0701 15.3194 0 0 0
427 1 40.1622 25.9929 11.484 -0 0 0
428 2 42.2171 27.1507 11.5574 -0 -0 -0
263 1 26.7476 16.1505 18.4254 -0 0 -0
264 2 28.1595 17.7284 17.3831 -0 0 0
275 1 26.9072 21.6898 18.4844 0 -0 0
276 2 28.3193 23.2001 17.347 0 0 0
335 1 34.4671 16.2088 18.4187 -0 0 -0
347 1 34.6006 21.7245 18.5015 -0 -0 0
336 2 35.8899 17.8381 17.4749 0 0 -0
348 2 36.0438 23.2865 17.4786 0 0 -0
407 1 41.0183 15.9955 18.5978 -0 -0 0
419 1 41.1243 21.4957 18.6651 -0 -0 -0
408 2 42.5726 17.5826 17.8011 -0 -0 -0
420 2 42.6923 23.038 17.8094 0 0 0
287 1 26.2499 26.4825 19.0994 0 0 -0
288 2 28.3246 27.1322 18.1818 -0 -0 -0
359 1 33.9996 26.5792 19.0401 -0 0 -0
360 2 36.2073 27.1822 18.4639 0 -0 -0
431 1 40.853 26.5335 19.2257 -0 0 -0
432 2 42.7529 27.1025 17.9469 -0 0 -0
ITEM: TIMESTEP
1000
ITEM: NUMBER OF ATOMS
432
ITEM: BOX BOUNDS pp pp pp
-2.0223399999999998e+00 4.7647511000000002e+01
-2.0223399999999998e+00 3.2115000999999999e+01
-2.0223399999999998e+00 2.3101209999999998e+01
ITEM: ATOMS id type xu yu zu vx vy vz
1 1 2.17216 1.81029 0.809678 0.00166059 0.00150516 0.000675979
2 2 4.1595 3.04881 1.10273 0.00224427 0.000730032 -0.000118595
13 1 1.08242 6.2525 0.505203 0.000573247 0.000532271 0.000300012
15 1 3.39491 5.39184 4.25439 -0.00056613 -6.23403e-05 0.000345121
3 1 5.33687 0.783649 4.40335 0.000795399 0.000142676 0.000625615
4 2 6.65437 2.67059 4.92405 0.000745363 5.88103e-05 0.00106161
73 1 7.99781 1.68662 1.06635 0.000225395 0.00106236 0.000682202
74 2 9.61278 2.92086 2.2651 0.000758759 0.000690884 0.000301141
85 1 7.01175 5.59434 0.26293 0.000570454 -3.45167e-05 0.000131235
76 2 14.0965 3.00756 4.77259 0.000389505 0.00099126 0.000680444
145 1 15.99 1.59208 1.11907 0.000347055 0.00108442 0.000822259
157 1 14.7088 5.76107 0.224816 -0.000142535 0.000164409 0.000420843
88 2 12.9095 6.68419 4.12703 -0.000276737 -3.39883e-05 2.70337e-05
146 2 17.3548 2.94691 2.48692 0.000606149 0.00064695 0.00096337
148 2 21.814 2.93141 4.7657 0.000593102 0.000797473 0.00075299
160 2 20.7157 6.52744 4.06578 -1.24221e-06 -0.000464321 -0.000311855
229 1 22.3381 5.75436 0.200936 -8.77722e-05 0.000170164 0.000371379
14 2 3.26697 7.14583 0.517187 0.000327416 0.00111741 0.000934786
25 1 2.12399 11.1268 0.83029 0.00154658 0.000379523 0.000690638
26 2 3.75807 12.7276 1.41063 0.00112903 0.00114626 -0.000259099
27 1 4.57919 9.89362 4.4055 -0.000298741 -0.000361345 -2.82753e-05
16 2 5.60853 6.20534 4.32612 -0.0002796 -0.00077791 -9.24609e-05
86 2 8.4196 6.79255 1.72969 -0.000242325 0.000590678 0.000381178
97 1 7.6981 10.8325 1.20397 0.000322468 0.000382497 0.000808478
98 2 9.06387 12.3288 2.41536 0.000306392 0.000260391 0.000955192
100 2 13.1 12.2568 4.85226 -0.000364537 3.31629e-06 0.00112836
169 1 15.7114 10.9167 1.38529 0.000506281 0.000565158 0.00153439
158 2 16.1443 6.73176 1.82716 -0.000296497 0.00045962 0.000372534
170 2 16.6509 12.3589 3.00032 5.95392e-05 0.000333484 0.00197734
172 2 20.7189 12.1444 4.94627 -0.000381538 -0.000186721 0.00119231
6 2 3.99837 3.20089 7.86506 -9.5808e-05 0.000455474 -0.00031951
365 1 2.28353 1.6084 7.55607 0.000100897 0.000215756 -0.000121745
377 1 2.01023 6.94869 7.58397 0.000250856 0.00176989 0.00012184
5 1 8.53837 1.0058 8.05825 0.00150707 -0.00024733 0.000127986
17 1 7.57811 5.49531 7.96254 0.00143207 0.001293 0.000297381
78 2 10.1211 2.56279 7.25842 0.000975965 0.000196325 -6.67259e-05
75 1 12.6223 1.20422 4.39422 0.00129832 0.000377756 5.23067e-05
87 1 10.9198 5.56122 4.71575 -0.000448372 7.08743e-05 -0.000350671
77 1 15.9903 1.67368 8.17257 0.00072392 0.000511149 0.00114372
89 1 14.3112 5.5875 7.81431 -0.000949177 2.36975e-05 0.000551463
147 1 20.2741 1.15166 4.5958 0.00110413 0.000372484 0.000555623
159 1 18.6551 5.70785 4.87153 -0.000417106 0.00120687 0.000334884
150 2 17.8047 3.03488 7.52185 0.000602699 0.000494612 0.000760273
161 1 21.8672 5.48975 7.84391 -0.000994468 -0.000230254 0.000578075
18 2 4.20774 7.79859 7.69657 0.00083514 0.000225305 0.000239082
30 2 4.47698 13.1911 8.04291 0.00066299 0.000370073 0.00039625
389 1 2.66618 11.7442 7.61033 0.000519703 0.000716863 -0.000118933
28 2 5.79491 11.9073 4.58419 0.000426029 -0.000879811 0.00107653
29 1 7.25149 9.96556 7.89252 -0.000305938 -0.000168317 -7.18521e-05
90 2 9.55316 6.78473 8.02515 0.00181022 0.000702499 0.00102227
102 2 8.73489 11.6284 7.11803 0.000563617 -0.000947779 -9.73326e-05
99 1 11.7681 10.3142 4.71263 -0.000208247 -7.88229e-05 0.000702157
101 1 15.4589 10.8223 7.81851 0.000366318 0.000472202 0.000416498
171 1 19.548 10.1117 4.69402 1.51688e-05 -0.00034583 0.000580872
162 2 16.2954 6.86199 7.89201 -0.00100447 0.000150553 4.04752e-05
174 2 17.0739 12.3138 6.96005 -0.000493071 0.00034696 -0.00142187
10 2 4.09442 3.33236 14.4691 -0.000151211 0.000186378 0.000246755
19 1 3.07253 5.30355 11.15 -0.000869977 0.000189791 0.000295666
369 1 2.37858 1.75096 14.8219 -0.000128775 4.01109e-05 -0.000286399
381 1 1.95449 6.75624 15.0906 0.00106164 0.0012638 -0.000144911
7 1 5.32505 1.05671 11.1477 0.00118964 0.000586722 -3.41708e-05
8 2 6.85043 2.85599 11.0789 0.000963877 0.000750692 -0.000657253
9 1 8.55173 0.8328 14.3744 0.000661521 0.000214059 -0.000819132
21 1 7.34826 5.34055 14.0543 0.00104471 0.00123671 -0.000874039
82 2 10.0571 2.64722 14.478 0.000361792 0.000450585 -0.000549969
94 2 9.03919 6.50135 15.2188 0.00119977 -0.000322589 0.000482353
79 1 11.9569 1.74557 10.9885 0.000477286 0.000620022 -0.000977355
80 2 13.8033 3.06078 11.6434 0.000360491 0.00054547 -0.000487062
81 1 16.4177 1.21512 14.4754 0.00102333 0.000493508 -0.000518528
91 1 10.3374 5.62133 11.5377 -0.000787671 -0.000268836 0.000669139
93 1 14.8495 5.74459 14.2106 -0.000480676 0.00115312 -0.000295794
151 1 19.8363 1.62977 10.8579 0.00082634 0.000397742 -0.0011435
152 2 21.6257 3.02349 11.5088 0.000657154 0.000471539 -0.000826195
154 2 18.0052 2.95021 14.2821 0.000572517 0.000884351 -0.000733224
163 1 18.1154 5.50058 11.198 -0.000888058 -0.000188305 -0.000633432
166 2 16.9296 6.59214 14.9335 -5.18226e-05 -0.000227098 0.000100729
165 1 22.3919 5.69916 14.1788 -0.000592592 0.00118512 -0.000336289
22 2 4.08924 7.69316 14.7253 0.00109645 0.00110841 -0.000339449
34 2 4.28182 13.0528 14.3382 0.00116828 0.00076766 -0.000230308
393 1 2.62487 11.4151 14.707 0.00110606 0.000774505 -0.000564198
31 1 4.60759 10.3306 11.1573 0.000745925 0.000307346 -8.32141e-05
20 2 5.15987 6.40181 11.0886 -0.00056236 -0.000392883 5.47188e-05
32 2 6.38641 11.8797 11.2256 0.000814743 0.00026855 -0.000733166
33 1 7.48004 9.81581 14.3325 -0.00115454 -0.000221859 -0.000290526
106 2 8.8208 11.7497 14.161 -0.000338921 -0.000852736 -0.00114205
92 2 12.3013 6.86334 11.1281 -0.00125675 0.000170806 -0.000274593
103 1 11.4251 10.8451 11.3641 0.000158817 0.000302911 -0.000297308
104 2 13.1158 12.2822 12.1674 -0.000560066 0.000363268 0.00110707
105 1 15.7612 10.231 14.4602 7.95564e-05 -0.00011144 -0.000349041
164 2 20.0652 6.82823 11.1501 -0.00103293 5.37577e-05 -9.66873e-05
175 1 19.2318 10.763 11.1212 0.000457609 0.000425964 -0.000749082
176 2 20.7262 12.2779 12.1417 -0.000752181 0.000133536 0.00145864
178 2 16.966 12.2186 14.0536 -0.000501906 5.11679e-05 -0.00130579
23 1 4.1671 6.00615 18.7228 0.000617144 0.00031795 -0.000399369
11 1 5.23571 1.6687 18.1298 0.0013394 0.00141305 -0.000561481
12 2 7.11596 2.95432 17.5099 0.00159699 0.00112809 -0.000297725
83 1 12.116 1.60131 18.0146 0.000335692 0.00118304 -0.000756091
84 2 13.4184 2.9193 16.5529 0.000500199 0.000558684 -0.00114207
95 1 10.6723 5.71568 18.8207 -0.000300986 9.855e-05 -0.000351813
155 1 19.8092 1.59371 17.9559 0.000364228 0.00108013 -0.000793327
156 2 21.2144 2.95011 16.6312 0.000719745 0.000690107 -0.000780634
167 1 18.5396 5.75808 18.8572 -8.37811e-05 0.000173445 -0.000377746
35 1 5.09107 10.7466 18.0035 0.00118022 4.75661e-05 -0.000757074
24 2 6.23596 6.86176 17.9756 0.000412937 0.000611956 -0.0005764
36 2 6.56185 12.5145 17.4725 0.0011881 0.000194406 -0.000177796
96 2 12.2208 6.6277 17.2905 0.000969634 0.000404118 0.00111704
107 1 11.7142 10.8849 17.6767 0.000175892 0.00041344 -0.00146934
108 2 12.4507 12.2188 15.875 -0.000337638 0.000132132 -0.00185834
168 2 20.0654 6.74813 17.3531 -0.000111134 0.000499392 -0.000181661
179 1 19.5073 10.9055 17.6677 0.000493814 0.000548637 -0.00153436
180 2 20.4427 12.3628 16.064 -5.96087e-05 0.000372881 -0.00199087
37 1 2.08157 16.6843 0.824271 0.00176424 0.000693798 0.000729497
38 2 3.74528 18.2725 1.35361 0.00134652 0.00123655 0.000395938
49 1 2.05351 22.1847 0.780364 0.000984802 0.00033327 0.000545823
50 2 4.17953 23.2076 0.798373 0.000856199 0.000607492 0.000323223
39 1 4.47445 15.4962 4.3343 -0.000278712 -0.000390193 0.000226065
51 1 4.59763 21.1487 4.35812 -0.000237705 6.42062e-05 0.000275408
109 1 7.58102 16.3629 1.16705 0.000321258 0.000323586 0.000873107
110 2 8.92411 17.9585 2.27246 0.000155867 0.0005996 0.000649655
121 1 7.66774 21.6913 0.941516 0.000824902 -0.000787472 0.000381198
122 2 9.19102 23.0209 2.15807 0.000279348 -0.0001461 0.000329983
112 2 13.2268 17.5041 4.90952 -0.000145343 -0.000521198 0.00118617
124 2 13.7645 22.284 4.98676 -4.84458e-05 -0.00138901 0.00117818
181 1 15.6162 16.4261 1.29625 0.000533182 0.00058061 0.00152265
193 1 15.575 21.8395 0.92704 -5.42626e-05 0.000157366 0.000695728
182 2 16.5541 18.0197 2.76356 -7.47448e-05 0.000828317 0.00162308
184 2 20.8384 17.4335 4.97144 -0.000243486 -0.000672363 0.00127436
194 2 16.7208 23.1224 2.5429 -0.000500487 4.88406e-05 0.00106937
196 2 21.3776 22.3112 4.99718 -0.000105387 -0.0014252 0.00112209
61 1 0.940609 26.4373 0.438663 0.00043604 -0.00048293 0.000265283
62 2 3.19674 26.8777 -0.096164 0.000307973 -6.39215e-05 0.000140234
63 1 3.3544 25.538 3.8861 -0.000691525 -0.00114486 0.000233768
64 2 5.54384 26.3961 4.08104 -0.00074956 -0.000847043 -0.000332496
133 1 7.08363 25.8186 -0.208316 0.000599777 -0.000884541 -0.000159506
134 2 8.55919 26.8004 1.35017 -0.000254151 -0.000377533 0.00030451
136 2 13.2333 25.9075 3.48703 -0.000591754 -0.00172407 -0.000263555
205 1 14.9341 26.1473 -0.337479 0.000459088 -0.000517974 -0.000296451
206 2 16.3637 26.8876 1.38861 2.76535e-05 -0.000101069 -0.000126458
208 2 20.7644 25.9187 3.47794 -0.00111734 -0.00169518 -0.000353898
277 1 22.5312 26.1368 -0.386779 0.000418738 -0.000521979 -0.000297682
42 2 4.42707 18.7351 8.02102 0.0016205 0.00105905 0.000178569
54 2 4.15151 23.4924 7.94209 0.000391355 -0.000366881 -0.000180764
401 1 2.86167 17 7.69456 0.00139196 0.00125893 0.000269078
413 1 2.27714 22.089 7.64829 -5.35622e-05 0.000154615 0.000118701
40 2 5.75098 17.4668 4.56372 -0.000114626 -0.000515743 0.000545195
52 2 6.37862 22.6126 4.85998 0.000254991 -0.000504619 0.000234554
41 1 7.35491 15.3651 7.91966 0.000748665 -0.000493428 -2.45554e-05
53 1 7.75498 20.8099 8.14693 0.000356252 -0.00109129 0.000333587
114 2 8.70877 17.1392 7.15686 0.000439227 -0.000315686 -0.000178792
126 2 9.47817 22.2794 7.48567 -0.000248781 -0.000554908 -8.00897e-05
111 1 11.5264 15.8849 4.67585 -0.000349965 -0.00019006 0.00032227
123 1 11.7865 21.1308 4.41762 -0.000231712 -0.000474185 -9.44608e-05
113 1 15.4876 16.1616 7.89227 0.000685666 -5.60621e-06 0.000703632
125 1 15.7961 21.4622 8.33753 0.000805884 -0.00030286 0.00129568
183 1 19.2436 15.7161 4.69919 -0.000327117 -0.000457144 0.000347706
195 1 19.4751 21.0297 4.44549 -0.000214967 -0.000691051 -0.000265082
186 2 17.025 17.8092 7.19076 -0.000307332 0.000156284 -0.00110933
198 2 17.6073 22.6939 7.45934 -0.000143666 -0.000222863 -0.000570164
66 2 3.67974 27.5212 7.45206 0.000655752 -0.000170893 -0.000149366
425 1 1.50776 26.5979 7.48787 0.000532053 0.00018205 -0.000272126
65 1 7.49646 25.7962 7.68685 0.00104648 0.00035485 0.000346489
138 2 9.76026 26.2172 8.20238 0.00121102 -0.000988088 0.000634898
135 1 11.1364 25.6374 4.53506 -0.000416575 -0.000814654 0.000297484
137 1 14.4661 25.5104 7.35989 -0.000508273 -0.00100838 -0.000190925
207 1 18.8034 25.7266 4.77705 -0.00040178 -0.000494786 0.000890084
210 2 16.5013 26.4074 8.14849 -0.00102622 -0.000634269 0.000708238
209 1 22.0002 25.4525 7.36737 -0.000547071 -0.00104615 -4.62255e-05
46 2 4.28225 18.5572 14.3243 0.00121351 0.00106539 -0.000410089
58 2 4.43248 23.283 14.6046 0.000474302 0.000104248 6.29639e-05
405 1 2.61625 16.9343 14.7183 0.00143028 0.000808672 -0.00063506
417 1 2.35317 22.1774 14.7505 0.000420489 9.88893e-05 -0.0004418
43 1 4.60605 15.6379 11.193 0.000835157 0.000131191 3.91978e-05
55 1 5.0034 21.1774 11.1626 0.000790708 -4.24508e-05 0.000121769
44 2 6.27619 17.3049 11.1679 0.00105184 -8.40796e-05 -0.000474294
45 1 7.24453 15.3145 14.3907 -0.000749247 -0.000731201 0.000285264
56 2 6.57454 22.9384 11.1882 0.000769105 -1.75066e-05 -0.000231606
57 1 7.3781 20.6479 14.3025 -0.000799412 -0.00120755 -0.00024716
118 2 8.81109 17.068 14.2019 -0.000382382 -0.00123583 -0.00138776
130 2 9.33356 21.966 14.2745 -0.000535376 -0.00160806 -0.00113758
115 1 11.4375 16.2914 11.3573 0.000376514 0.000182793 -0.000257066
116 2 13.0882 17.8741 11.941 -0.000487163 0.000527681 0.00126835
117 1 15.4614 15.8233 14.4581 -0.000274334 -0.000205083 -0.000188651
127 1 11.6099 21.5623 10.9671 0.000165262 -0.000264106 -0.000894097
128 2 13.6558 22.5649 11.5816 -0.000177962 -0.000420028 0.00053308
129 1 15.6819 21.1266 14.6307 -0.000175265 -0.000500719 0.000344507
187 1 19.2395 16.1004 11.0623 0.000652992 -0.000129474 -0.000973842
188 2 20.7282 17.7339 11.8906 -0.000550178 -9.05777e-05 0.00112786
190 2 17.0568 17.5111 14.0411 -0.000304965 -0.000454222 -0.001352
199 1 19.5732 21.3849 10.6996 0.000761981 -0.000433943 -0.00128419
200 2 21.3415 22.666 11.5942 -0.00028503 -0.000266218 0.000564937
202 2 17.633 22.3227 14.0572 2.28609e-05 -0.00148421 -0.00109236
67 1 2.75282 25.2684 11.2874 -0.000898074 -0.00113222 0.000185616
70 2 3.77208 27.1743 14.9225 0.000680158 -0.000233205 -0.00042823
429 1 1.54805 26.4659 15.2734 0.000849378 -0.000388772 0.000133839
68 2 4.81276 26.4009 11.0838 -0.000939608 -0.00106993 -5.92684e-05
69 1 7.50247 25.6817 14.1525 0.00101494 0.000421093 -0.000681359
142 2 9.17133 25.5328 15.8141 0.000196555 -0.0025306 -0.000143288
139 1 10.6289 25.5434 12.0263 -8.73117e-06 -0.00117881 0.00100299
140 2 12.5661 26.2868 10.9025 -0.00102457 -0.000918103 -0.000560174
141 1 15.0074 25.7242 14.3297 -0.000417326 -0.000666544 -0.000832777
211 1 18.2414 25.4626 11.6817 -0.000478129 -0.00101646 1.1766e-05
212 2 20.2619 26.3874 10.8875 -0.000998774 -0.000609429 -0.0008301
214 2 17.0169 25.9517 15.5466 -0.000972251 -0.00162374 0.000247596
213 1 22.5474 25.7306 14.2679 -0.000497128 -0.000469187 -0.000941771