ITEM: TIMESTEP
10000
ITEM: NUMBER OF ATOMS
122
ITEM: BOX BOUNDS pp pp pp
0.0000000000000000e+00 2.0000000000000000e+01
0.0000000000000000e+00 2.0000000000000000e+01
0.0000000000000000e+00 2.0000000000000000e+01
ITEM: ATOMS id type xu yu zu vx vy vz
100 5 0.887865 0.816529 1.26015 -0.00287817 -0.00386576 -0.000879051
76 3 0.118053 0.0518059 1.10699 -0.00425437 0.000573586 -0.000792962
101 5 -0.838171 0.777574 2.81079 0.0010182 -0.00104269 0.00379088
114 5 -2.376 3.67924 0.294493 -0.00337905 -0.00395698 -0.00447708
77 3 -1.1492 0.657728 1.74726 -0.000929982 -0.000108259 0.00374885
109 5 -2.2209 2.42391 2.1518 -0.00488846 -0.00469764 -0.0015458
81 3 -1.86697 1.95663 1.23105 -0.00334065 -0.00405887 0.000426578
110 5 -2.80608 1.60939 0.789936 4.67558e-05 -0.0114862 -0.00283682
84 3 -1.3849 3.3153 0.578153 -0.00504569 -0.00281337 0.00133127
115 5 -0.994143 4.03564 1.33299 -0.00903617 -7.5665e-05 0.00180753
70 2 -4.81547 -7.62787 0.67225 -0.000534873 0.00648377 -0.00583549
122 6 -3.90073 -9.93225 0.404316 0.00419796 0.00249965 -0.00612051
99 5 0.228163 -0.658917 1.92412 0.0032511 0.00476062 0.000366864
104 5 0.502612 -1.91358 0.108295 -0.00438339 -0.00378232 -0.00486451
102 5 -1.94381 -0.0943442 1.8235 -0.00193224 -0.00120936 -0.00152644
10 4 11.1847 12.7068 11.7327 0.00743259 0.00243237 1.1568e-05
8 3 10.0746 14.1429 13.0486 0.000259212 0.00316545 0.000231591
9 3 11.0095 13.906 12.0281 0.00244657 0.00138952 0.00116397
11 3 11.8772 14.8001 11.371 0.00513198 -0.00108954 0.00109932
64 6 12.2144 13.5072 9.72575 0.00868144 -0.000886553 -4.23839e-06
28 3 12.4853 14.3825 10.1752 0.00544312 7.61421e-05 -0.000281136
65 6 9.49277 16.0404 12.3619 0.0052987 0.00684256 0.00495293
29 3 9.40254 15.3536 13.109 0.00357028 0.0058588 0.0036229
40 6 11.7984 16.4352 12.7171 0.00564451 -0.00123986 0.00305388
12 3 12.2208 16.0565 11.8709 0.00197461 -0.000408852 0.000788735
13 3 13.2175 16.7972 11.2465 -0.000906029 0.00338793 0.00116753
27 3 13.4825 15.129 9.55421 0.00330585 0.00412524 -0.00149875
63 6 13.9086 14.7905 8.6912 0.00498385 0.00391891 -0.00089501
14 3 13.9169 16.305 10.1513 0.000263502 0.0048624 0.00115827
41 6 13.4704 17.7067 11.6307 0.000218816 0.00147173 0.00652271
43 6 16.8733 15.3929 9.54113 0.00408602 0.0113817 -0.00626196
44 6 18.3917 16.4791 10.7641 -0.00401116 0.012353 0.00110846
15 5 15.2923 17.1818 9.55734 0.000928641 0.00603209 0.00226668
16 1 16.3792 15.9794 10.3179 0.00109242 0.00417136 -0.00219754
42 6 15.8389 15.3199 11.0001 0.00461527 9.45749e-05 -0.00240679
17 1 17.4058 16.8063 11.0863 -0.00352749 0.00802781 0.0079656
45 6 17.2867 17.8675 10.8587 -0.0116489 0.00701748 0.0053538
46 6 17.5108 15.5183 12.8294 0.0120854 0.00104751 0.00459644
18 1 17.344 16.5702 12.5974 0.0101259 0.000377596 0.00825511
48 6 15.6568 17.9117 12.7546 0.0187414 0.0118238 0.0101961
47 6 18.1882 17.1457 12.9614 0.00805016 0.00472551 0.00593573
19 1 16.0781 17.0839 13.3211 0.00797046 0.00218086 0.00453346
121 5 0.467997 3.63031 -0.684682 -0.00254604 0.00262919 0.00898326
62 7 14.1888 23.8265 13.511 0.0044707 0.00225903 0.00243104
60 6 13.4138 22.0629 14.7503 0.010796 -0.0141377 -0.00188814
26 5 15.1032 23.8217 14.5174 -0.000990647 -0.000286906 0.00653186
119 5 -0.821936 4.77873 -0.691897 -0.00888075 -0.000863818 0.0021698
87 3 -0.609839 3.71387 -0.711143 -0.00201115 -0.000509448 0.0036225
61 6 13.4328 23.2313 16.083 -0.00582951 -0.00195848 -0.00768432
25 1 14.0572 22.6469 15.4072 0.00114926 -0.00560538 0.000196581
59 6 15.6676 22.3936 16.7403 -0.000553295 0.00847876 0.000963002
58 6 14.2301 21.4652 17.1458 -0.00802855 0.008977 -0.0043578
24 1 14.8882 21.7525 16.3271 0.00303848 0.00420636 0.00211469
57 6 16.227 20.7569 14.9618 0.00462363 -0.00067021 0.0121209
120 5 -0.963559 3.40143 -1.68953 0.00496736 -0.0010537 0.000651104
112 5 -1.00404 0.106969 -1.56204 -0.000895957 -0.00202267 -0.00321982
23 1 15.5719 20.4729 15.7843 0.00520785 0.00138196 0.0120594
56 6 16.1925 20.0813 16.5931 0.00172966 -0.000925457 0.0134245
89 5 0.825171 -7.37828 -3.00971 0.00401983 0.00200395 -0.0049413
39 6 10.1954 12.2492 13.9734 -0.00729221 0.00189772 -0.00192784
38 6 8.72884 12.7369 15.8032 -0.000536946 0.00766236 -6.05124e-05
7 3 9.76763 13.1739 14.0195 -0.00246283 0.00400461 -0.000530127
94 5 -0.978619 -7.90986 -1.46593 -0.00448258 0.000172342 -0.00374586
118 5 -5.62689 -7.01108 -1.48787 -0.00330486 0.000798355 -0.00304088
69 1 -4.04248 -9.44587 -0.434238 0.00721417 0.00635374 -0.00432514
88 4 -4.47836 -8.17304 -0.410844 0.00639135 0.00592326 -0.00380116
90 5 -0.62221 -7.77856 -3.6153 -0.00359878 -0.000948735 -0.00498606
117 5 -4.75217 -7.99524 -2.61528 -0.00198052 -0.000647448 -0.00141065
86 3 -4.65779 -7.44034 -1.6793 -0.00287249 0.00188327 -0.00384104
73 3 -0.908676 -6.87448 -1.77855 0.000657985 0.00166553 -0.00354096
71 3 -0.146597 -6.94086 -3.13251 0.000330297 -0.00215173 -0.00289455
103 5 1.291 -0.497447 -0.591395 -0.003295 0.000337519 0.00746089
78 3 0.344942 -0.854281 -0.205188 -0.00407954 -0.00225724 0.00269308
36 6 5.84387 14.6754 16.8424 0.00226632 0.00471601 -0.000881071
37 6 6.14665 15.5172 15.302 0.00145618 0.00511677 -0.00207876
3 1 6.43655 15.4467 16.3493 0.000713481 0.00528417 -0.00165324
2 1 6.19236 16.7928 17.0224 0.002147 0.00457891 0.00313985
35 6 5.47246 17.3757 16.4488 -0.00151273 0.0085757 0.0117428
34 6 5.83036 16.6422 18.0402 0.0133892 -0.00180478 0.00613647
105 5 2.03547 -3.45936 -3.8095 -0.00272063 -0.00345731 0.00177033
106 5 1.15979 -3.85372 -2.35707 -0.00284423 -0.00769232 -0.0051837
79 3 1.04687 -3.49496 -3.40078 -0.00358407 -0.00240309 -0.000642924
91 5 0.780795 -6.41165 -4.83379 -0.00520504 0.00283843 0.00442948
113 5 1.67867 -1.55305 -4.02926 -0.0029167 -0.00318336 -0.00190602
85 4 0.00268495 -1.12576 -2.85933 0.00175452 0.000966005 0.00342104
83 4 0.913216 -2.01976 -3.48163 -3.23598e-05 -0.000930066 0.00315442
74 3 0.297355 -4.42211 -4.47149 0.00398282 -0.00258961 -0.00340308
96 5 0.901276 -4.53228 -5.41134 0.00673343 0.0015016 -0.00642262
5 3 8.44355 14.7454 15.2627 0.00465752 0.00819429 0.00366523
68 6 8.68565 16.0671 18.1602 -0.00929213 0.00425482 0.00363731
6 3 8.92562 13.4508 15.1 0.00177347 0.00792315 0.000818382
4 2 7.86374 15.1381 16.4802 0.000202216 0.00543164 0.00071764
1 1 7.55119 17.4803 17.0363 0.00259023 0.00232113 -0.00202381
33 6 7.64225 18.134 17.9034 0.005209 0.000682793 -0.00106031
30 3 8.61196 15.639 14.2068 0.00804698 0.0113283 0.00637933
66 6 8.16243 16.5503 14.2459 0.0123869 0.0137431 0.0085162
67 6 9.48294 16.5431 16.6404 0.00363098 -0.00111614 0.0104092
31 1 8.52599 16.3045 17.1077 -0.00111351 0.00279681 0.00240402
32 6 7.70954 18.0532 16.124 0.00469126 0.00433976 4.71822e-05
97 5 -2.35014 -5.87763 -0.502211 0.00190857 -0.00813329 -0.000443618
49 6 15.3827 16.2468 13.3659 0.00222851 0.00636983 -0.00436354
54 6 14.4631 19.5082 14.1649 -0.018024 0.00911343 0.00956869
20 1 16.3299 17.5679 14.7475 0.0026995 -0.00547759 0.00446524
51 6 17.0736 18.3632 14.727 0.0100828 -0.0105495 0.00224878
116 5 -0.235028 -0.355384 -3.48593 0.00340342 -0.00186716 0.000132093
107 5 -4.10107 -5.42401 -1.94802 0.00539963 -0.00115272 -0.00159677
75 3 -2.26038 -6.12203 -1.54524 0.00181934 0.00131646 -0.00224535
93 5 -0.211449 -6.50455 -1.03616 0.00455252 0.000307633 -0.00563211
50 6 16.7615 16.7328 15.2846 -0.00349817 -0.00856987 0.00299139
22 1 14.5951 19.3943 15.2417 -0.00215302 0.00603298 0.00697212
98 5 -2.11924 -5.1357 -1.87462 0.000347448 0.00240475 0.000330618
80 3 -3.66363 -6.37132 -2.16693 0.00248771 -0.00176077 -0.00287102
108 5 -3.77322 -6.33096 -3.25364 0.000299374 -0.00238563 -0.00314757
21 1 15.0864 17.9733 15.5384 0.00285875 0.00493693 -0.00281943
52 6 14.2895 17.271 15.2944 -9.97922e-05 0.00563657 0.00456428
53 6 15.3267 17.9019 16.5979 0.00334756 0.00424517 -0.00356472
55 6 13.6259 19.5237 15.7242 0.00793544 0.00495106 0.0279816
82 3 -0.586154 -0.904776 -1.47577 -0.00111918 0.00147744 0.0013537
111 5 -1.37904 -1.62835 -1.27789 -0.00304591 0.00374247 -0.00194071
92 5 -0.956436 -6.1523 -4.90296 0.00236624 -0.00564422 -0.00217346
72 3 -0.055533 -5.94336 -4.31106 -0.00293762 -0.000865441 0.000710411
95 5 -0.613566 -3.9165 -4.79443 0.00366406 -0.00195245 0.00353171
ITEM: TIMESTEP
10010
ITEM: NUMBER OF ATOMS
122
ITEM: BOX BOUNDS pp pp pp
0.0000000000000000e+00 2.0000000000000000e+01
0.0000000000000000e+00 2.0000000000000000e+01
0.0000000000000000e+00 2.0000000000000000e+01
ITEM: ATOMS id type xu yu zu vx vy vz
100 5 0.374038 -1.11564 2.58725 -0.00212042 -0.00449568 -0.00166414
76 3 -0.451075 -1.75775 2.27976 -0.00511988 -0.000346028 -0.000452032
101 5 -1.39939 -1.28183 4.07755 0.000523107 -0.000207802 0.00269959
114 5 -2.639 2.11948 2.04321 -0.00324272 -0.00363332 -0.00408758
77 3 -1.68326 -1.18199 3.00299 -0.00214204 0.000171115 0.00334045
109 5 -2.6619 0.538354 3.6605 -0.0051443 -0.0053555 -0.0012031
81 3 -2.29525 0.223061 2.69151 -0.00361492 -0.00301131 0.000396954
110 5 -3.21883 -0.00403169 2.14741 0.000414217 -0.0108034 -0.0030601
84 3 -1.69885 1.64152 2.31374 -0.00514893 -0.00165175 0.00108611
115 5 -1.31165 2.19183 3.19988 -0.00962314 -0.00133285 0.00157925
70 2 -5.86383 -8.80342 0.292609 0.000571972 0.00548558 -0.0069583
122 6 -5.09784 -11.1079 -0.359807 -0.000852166 0.00236687 -0.00599747
99 5 -0.382935 -2.58913 2.96526 0.00432105 0.00413189 -3.41724e-05
104 5 -0.161969 -3.55145 0.934196 -0.0045694 -0.00224448 -0.00403755
102 5 -2.53221 -1.87612 2.89224 -0.00158455 -0.00101533 -0.00150071
10 4 10.0851 14.0461 13.9802 0.00683539 0.00173355 8.25491e-05
8 3 8.71534 15.0818 15.4574 0.000859442 0.00399197 0.000341976
9 3 9.77421 15.122 14.5272 0.00363352 -0.000557622 0.001316
11 3 10.6433 16.1798 14.193 0.00378912 -0.000825858 -0.000277437
64 6 11.2555 15.3327 12.3456 0.00836729 -0.00111093 0.00121373
28 3 11.4009 16.0933 13.0089 0.00559019 0.000371769 0.000399324
65 6 8.086 17.0726 15.1921 0.00378026 0.00612761 0.0052657
29 3 7.96954 16.22 15.7384 0.00391119 0.00572451 0.00424589
40 6 10.3208 17.4337 15.873 0.00579695 -0.00444682 0.00219631
12 3 10.8327 17.3 15.0052 0.00279435 -0.00013563 0.000233274
13 3 11.8155 18.2317 14.6922 -0.000101417 0.00336255 0.00205067
27 3 12.3871 17.0303 12.6914 0.00311628 0.00356954 0.000186247
63 6 12.9341 16.9307 11.8337 0.00648016 0.00545764 0.00171981
14 3 12.6558 18.057 13.5962 -0.000786952 0.00586617 0.000248506
41 6 11.9638 19.0224 15.3211 -0.000537859 0.000701147 0.00368976
43 6 15.7374 17.4861 13.1137 0.00353535 0.0107286 3.31903e-05
44 6 17.0087 18.3451 14.7365 -0.00309288 0.0205986 0.000502265
15 5 14.0194 19.1154 13.3883 -4.78335e-05 0.0057151 0.00202285
16 1 15.1165 17.8139 13.951 0.00232256 0.00505775 -0.000493446
42 6 14.5761 16.9727 14.3799 0.00386223 0.00208895 -0.00700729
17 1 15.9717 18.4911 15.0449 -0.00304415 0.00566607 0.00651035
45 6 15.7597 19.5614 15.0513 -0.0108656 0.00426777 0.00935363
46 6 16.069 16.8065 16.4292 0.00967792 0.00168876 0.00416571
18 1 15.8443 17.873 16.4526 0.00994038 0.0024994 0.00942848
48 6 14.0922 19.0978 16.7244 0.0157186 0.00632016 0.00730944
47 6 16.5945 18.3845 17.0422 0.00973264 -0.00165343 0.0156102
19 1 14.4673 18.1445 17.0981 0.00709518 0.00188628 0.00216058
121 5 0.237788 2.05142 1.2265 -0.00227497 0.00207935 0.0095902
62 7 12.0744 24.5761 18.6184 0.00620064 0.0103789 0.00273213
60 6 11.3589 22.443 19.2824 0.018496 -0.00956399 -0.00753511
26 5 12.8488 24.3379 19.7112 -0.001189 -0.00103143 0.00617249
119 5 -0.99715 3.26758 1.35007 -0.00834564 -0.000679288 0.001765
87 3 -0.828346 2.21015 1.1544 -0.00251888 -0.000106441 0.00364114
61 6 11.0406 23.3113 20.8027 -0.0130988 -0.0046485 -0.0156527
25 1 11.8213 22.9174 20.1493 0.00151742 -0.00452547 -0.000322702
59 6 13.2987 22.4867 21.5798 0.00109598 0.00455714 0.00600036
58 6 11.8794 21.4224 21.5677 0.00174214 0.00307292 0.00151489
24 1 12.6271 21.9129 20.9452 0.0030182 0.0028717 0.00482347
57 6 14.1813 21.3156 19.5944 0.0102461 0.00127954 0.013162
120 5 -1.12638 2.09951 0.11211 0.00418977 -0.00168713 0.00106804
112 5 -1.43172 -1.1553 -0.382709 -0.00117225 -0.00313783 -0.00402904
23 1 13.4569 20.8219 20.2377 0.00339272 0.00249265 0.0084672
56 6 13.9839 20.249 20.9983 -0.00582869 -0.00580989 0.00978898
89 5 -0.0455123 -8.35848 -3.10525 0.00471381 0.00225121 -0.00385829
39 6 8.83917 13.0225 15.9069 -0.00839483 0.00181582 -0.00495471
38 6 7.21185 13.0227 17.6403 0.00284233 0.00871302 -0.000191561
7 3 8.36996 13.8994 16.1293 -0.00233997 0.00414542 -0.00185574
94 5 -1.99397 -9.02431 -1.73643 -0.00527132 0.000147716 -0.00385569
118 5 -6.55508 -7.77516 -1.73101 -0.003665 0.00186347 -0.00371246
69 1 -5.13531 -10.4514 -1.08864 0.00834983 0.00587083 -0.00408229
88 4 -5.48751 -9.17273 -0.849307 0.00648717 0.00633146 -0.00480677
90 5 -1.53138 -8.54616 -3.82205 -0.00391218 -0.00127043 -0.00522478
117 5 -5.69792 -8.62283 -2.98023 -0.00230592 -0.00243422 -0.000603391
86 3 -5.606 -8.23152 -1.96992 -0.00187124 0.00287824 -0.00379674
73 3 -1.80797 -7.95514 -1.85026 0.00140376 0.00020162 -0.00282549
71 3 -1.00269 -7.85602 -3.17381 -0.00101461 -0.00311651 -0.00402233
103 5 0.760032 -2.08731 0.58834 -0.00277033 0.000242072 0.00807879
78 3 -0.230265 -2.44341 0.847555 -0.00429536 -0.00208415 0.00201887
36 6 4.10614 14.5061 18.7548 0.000239695 0.00494812 -0.00301978
37 6 4.49615 15.6989 17.4944 0.000431721 0.00381808 -0.00245034
3 1 4.68237 15.4014 18.5247 0.000106604 0.00551224 -0.00178976
2 1 4.28118 16.5317 19.4816 0.00157595 0.00464568 0.00272097
35 6 3.56146 17.2124 19.0292 -0.00117874 0.00650366 0.0141433
34 6 3.89103 16.0967 20.4038 0.0131883 -0.0001113 0.00454085
105 5 1.43639 -4.49608 -3.11943 -0.00159071 -0.0043536 0.00199682
106 5 0.470218 -5.0889 -1.82992 -0.00281512 -0.0073755 -0.00675399
79 3 0.427103 -4.52072 -2.7668 -0.00239101 -0.00302681 -0.00105061
91 5 0.00740078 -7.08122 -4.6845 -0.00531229 0.00232916 0.00345183
113 5 1.2182 -2.55381 -3.02022 -0.0041414 -0.00300722 -0.0018167
85 4 -0.443121 -2.19246 -1.81135 0.00295929 0.00250544 0.00423166
83 4 0.41435 -3.04331 -2.55801 -0.000711862 -0.0014181 0.00487516
74 3 -0.304389 -5.18171 -4.01918 0.0037195 -0.00254001 -0.0028936
96 5 0.344705 -5.14598 -4.9554 0.00618599 0.00230547 -0.00463158
5 3 6.85375 15.0886 17.5681 0.00499895 0.0094703 0.00287657
68 6 6.64749 15.6711 20.6969 -0.00632477 0.00308167 0.00366843
6 3 7.43054 13.8935 17.155 0.00291985 0.00900574 0.00136097
4 2 6.10605 15.136 18.7543 0.000173051 0.00462375 0.00061735
1 1 5.58397 17.2506 19.7845 0.00265327 0.00306639 -0.00139885
33 6 5.55794 17.6722 20.7889 0.00663477 0.000747919 -0.00103838
30 3 7.07304 16.228 16.7924 0.0070002 0.0119815 0.00725846
66 6 6.58808 17.1 16.9974 0.0149586 0.0162709 0.00782178
67 6 7.60444 16.5058 19.4629 0.00130947 -0.000190611 0.00923229
31 1 6.61005 16.1351 19.7126 -0.000791775 0.00158189 0.00253718
32 6 5.79261 18.0321 19.0535 0.00153811 0.00124943 -0.00327579
97 5 -3.2273 -7.14268 -0.446825 0.00198436 -0.00897725 0.00018699
49 6 13.7914 17.3325 16.8226 -0.00322785 0.0146435 -0.0073418
54 6 12.4776 20.2693 18.3266 -0.016618 0.0157764 0.0136089
20 1 14.5253 18.2488 18.6195 0.00637042 -0.00608843 0.0044355
51 6 15.2158 19.048 18.8741 0.00321621 -0.00585654 0.0106136
116 5 -0.593392 -1.32299 -2.31563 0.00341845 -0.0013551 -9.37578e-05
107 5 -4.86161 -6.26766 -1.84005 0.00443622 -0.000654218 -0.000763847
75 3 -3.10828 -7.14975 -1.5212 0.00193593 0.00263361 -0.00263848
93 5 -1.10223 -7.78079 -1.04446 0.00425767 0.00057186 -0.00544348
50 6 14.9301 17.3074 18.9933 0.000101201 -0.0105245 0.00567994
22 1 12.5902 19.8817 19.3411 -0.000736434 0.0070876 0.00917053
98 5 -2.89043 -6.12978 -1.64892 0.000851982 0.0039323 9.65277e-05
80 3 -4.49738 -7.19165 -2.22194 0.00144041 -0.000483208 -0.00278671
108 5 -4.56353 -6.957 -3.2881 0.00110104 -0.00287551 -0.00286903
21 1 13.1741 18.4517 19.3034 0.00168369 0.00518431 -0.00217936
52 6 12.4373 17.7872 18.8567 -0.002339 0.00399633 0.00464466
53 6 13.3037 18.1262 20.336 -0.0016551 0.000209126 -0.00301674
55 6 11.6108 19.824 19.8185 0.00618184 0.00049391 0.0225585
82 3 -1.08968 -2.17984 -0.440851 -0.000707055 0.000140639 0.00159451
111 5 -1.94923 -2.84734 -0.418042 -0.00312201 0.00389214 -0.00226759
92 5 -1.66286 -6.71913 -4.79201 0.00317423 -0.00500144 -0.00292807
72 3 -0.805148 -6.66644 -4.12901 -0.00337888 -0.000486419 0.000507197
95 5 -1.16492 -4.55816 -4.23894 0.00333914 -0.00217728 0.00364709
ITEM: TIMESTEP
10020
ITEM: NUMBER OF ATOMS
122
ITEM: BOX BOUNDS pp pp pp
0.0000000000000000e+00 2.0000000000000000e+01
0.0000000000000000e+00 2.0000000000000000e+01
0.0000000000000000e+00 2.0000000000000000e+01
ITEM: ATOMS id type xu yu zu vx vy vz
100 5 0.224271 -0.282925 1.7348 -0.0014602 -0.00495878 -0.00246356
76 3 -0.671596 -0.845597 1.47652 -0.00437882 -0.000644056 0.000272525
101 5 -1.73598 0.321588 2.83845 0.000114132 0.00057706 0.0015112
114 5 -1.99206 2.99021 -0.343454 -0.0033226 -0.00323423 -0.00369103
77 3 -1.85004 0.103987 1.74992 -0.003062 -0.000576966 0.00203224
109 5 -2.5724 2.03426 1.64483 -0.00578383 -0.00567941 -0.000640027
81 3 -2.12663 1.38719 0.909693 -0.00314425 -0.00254185 -0.000428902
110 5 -2.9686 1.08494 0.276568 0.000590299 -0.00990265 -0.00337912
84 3 -1.22391 2.51497 0.258129 -0.0050306 -0.00123905 0.000161186
115 5 -0.894952 3.26349 1.00257 -0.0102806 -0.00235623 0.00152575
70 2 -6.97234 -7.30785 0.582505 0.00145585 0.00434976 -0.00732619
122 6 -6.59315 -9.78287 0.811784 0.000927227 0.00668463 -0.00556349
99 5 -0.819381 -1.39134 2.37838 0.00493302 0.00286537 3.15351e-05
104 5 -0.542162 -3.00933 0.791489 -0.00459845 -0.000810325 -0.00310372
102 5 -2.78438 -0.47029 1.66299 -0.00117455 -0.000759724 -0.00117331
10 4 9.80454 13.1503 17.0241 0.00607272 0.000398532 0.000742464
8 3 8.59341 14.9803 17.68 0.00240482 0.00406126 -0.000278528
9 3 9.54062 14.3493 16.8322 0.00417649 -0.000435671 0.00149535
11 3 10.3473 14.9188 15.8213 0.00255966 -0.000533915 -0.00144805
64 6 10.7643 13.0816 14.8432 0.00886042 0.00109324 0.00159141
28 3 10.9692 14.0824 14.8755 0.00557997 0.000898478 0.000882524
65 6 7.93546 16.4423 16.3319 0.00490745 0.00506063 0.00392593
29 3 7.89289 16.1139 17.2941 0.00400407 0.00668659 0.00482591
40 6 10.2262 16.9392 16.4208 0.0029634 -0.00439681 0.00271695
12 3 10.6259 16.2885 15.7536 0.00367667 -0.000633416 6.9388e-05
13 3 11.5437 16.7868 14.8424 0.000995828 0.00292374 0.00224135
27 3 11.8897 14.5781 13.9506 0.00292181 0.00447381 0.00238716
63 6 12.3441 13.9487 13.2877 0.0047697 0.00612867 0.00362117
14 3 12.2371 15.9329 13.9913 -0.00162715 0.0054422 -0.000658871
41 6 11.754 17.7814 14.8382 -0.000975486 0.00441239 0.00195016
43 6 15.2786 14.997 13.6523 0.00825212 0.00988613 0.00271487
44 6 16.696 16.6428 14.2444 -0.00160166 0.0230506 0.000236311
15 5 13.5602 16.5491 13.0503 -0.000899278 0.00518413 0.00190959
16 1 14.7453 15.7909 14.1702 0.00304105 0.00769995 0.00138799
42 6 14.2573 15.3887 15.051 0.000233139 -0.000305348 -0.00489378
17 1 15.699 16.9371 14.5522 -0.00111593 0.00359484 0.00602724
45 6 15.4397 17.8128 13.9576 -0.0116469 0.00415188 0.0158027
46 6 16.019 16.4261 16.6517 0.00315379 0.000230144 0.00507695
18 1 15.8069 17.3087 16.0572 0.00815661 0.00363933 0.00776257
48 6 14.1105 18.5678 15.6765 0.0102603 0.00899938 0.00276877
47 6 16.6331 18.0083 16.1783 0.0124842 -0.00161471 0.0183445
19 1 14.501 17.9956 16.5047 0.00695018 0.00210588 0.00111113
121 5 0.903511 2.29735 -0.446869 -0.00221259 0.00169932 0.0102201
62 7 12.2482 24.213 13.9747 0.000889791 0.0131694 -0.000723548
60 6 11.7035 22.8728 15.8472 0.0224845 -0.00225172 -0.0107582
26 5 13.1194 24.5847 14.9394 -0.000876032 -0.00146734 0.00606577
119 5 -0.0995832 3.62886 -0.979888 -0.00763771 -0.000601787 0.00144335
87 3 -0.0883927 2.55626 -0.804505 -0.00268731 -2.59146e-05 0.00332362
61 6 11.3954 24.4943 16.5193 -0.00869184 -0.0185774 -0.0148847
25 1 12.1725 23.7772 16.227 0.00109376 -0.00369259 -0.0024303
59 6 13.8265 24.2586 17.4971 0.00101407 0.00280969 0.0103104
58 6 12.4501 23.4929 18.2865 0.00963361 0.00177458 0.0154265
24 1 13.0931 23.4556 17.412 0.00239892 0.00295687 0.00794373
57 6 14.5269 22.0497 16.5984 0.0127017 0.000186681 0.0150628
120 5 -0.214649 2.14192 -1.81024 0.00324865 -0.00221292 0.00165739
112 5 -1.09709 -1.03115 -1.40114 -0.00148767 -0.00358014 -0.00454631
23 1 13.8394 22.1056 17.4438 0.00213267 0.00192686 0.00497881
56 6 14.4176 22.0613 18.368 -0.0054453 -0.00172108 0.00933962
89 5 -0.731129 -8.81947 -1.5348 0.00471986 0.00246519 -0.00290272
39 6 8.73943 13.6032 19.2613 -0.00632219 -0.000961765 -0.00711773
38 6 7.39878 14.8142 20.8029 0.00366948 0.0103227 0.00263441
7 3 8.3242 14.4798 18.9563 -0.00178904 0.00410368 -0.00295755
94 5 -3.00198 -8.73297 -0.456558 -0.00568082 0.000463446 -0.003975
118 5 -7.17202 -6.91768 -1.7354 -0.00351848 0.00283108 -0.00446975
69 1 -6.35029 -9.39548 -0.0549513 0.00874964 0.00555268 -0.0038112
88 4 -6.48825 -8.07152 -0.287531 0.00571607 0.00546806 -0.00540215
90 5 -2.14747 -9.03954 -2.45767 -0.00395731 -0.00160435 -0.00527411
117 5 -6.32251 -8.26102 -2.45613 -0.00290347 -0.00388727 0.000165419
86 3 -6.29249 -7.54986 -1.63083 -7.08945e-05 0.0037909 -0.00364147
73 3 -2.56337 -7.80156 -0.830034 0.000970298 -0.00156283 -0.00240249
71 3 -1.58336 -8.26679 -1.94253 -0.00181028 -0.0038487 -0.00440091
103 5 0.692925 -1.86352 0.277984 -0.00240811 -3.82559e-05 0.00847343
78 3 -0.380134 -1.98863 0.394307 -0.0040775 -0.00123856 0.000947568
36 6 4.41251 16.8519 21.0656 -0.00214497 0.00484188 -0.00422578
37 6 4.64297 16.9996 19.3119 0.000680607 0.00759388 -0.00253124
3 1 4.95376 17.3849 20.2841 -0.000438999 0.00578583 -0.00194858
2 1 4.67431 18.8858 20.4023 0.00238884 0.00373308 0.0029632
35 6 3.87971 19.2237 19.7502 -0.00837016 0.005774 0.0090447
34 6 4.44326 19.1135 21.4391 0.0066953 0.00206601 0.00496268
105 5 1.42858 -5.44771 -2.36329 -0.000591972 -0.00522401 0.00235635
106 5 0.183634 -5.46668 -1.22161 -0.00254726 -0.0069186 -0.00752107
79 3 0.393947 -5.20914 -2.24668 -0.000463689 -0.00286188 -0.00133697
91 5 -0.251658 -8.14195 -3.3521 -0.00474547 0.00111541 0.00218364
113 5 1.56679 -3.56125 -2.91113 -0.00524617 -0.00246718 -0.00168082
85 4 -0.110532 -2.56857 -2.19022 0.00425828 0.00219038 0.00476045
83 4 0.638559 -3.74622 -2.46017 -0.00146349 -0.00200775 0.00542721
74 3 -0.235348 -6.13301 -3.3736 0.00352776 -0.00230255 -0.00285516
96 5 0.550025 -6.47096 -4.1353 0.00510084 0.00316544 -0.00265756
5 3 7.02396 16.4291 19.5191 0.00438595 0.0103414 0.00255967
68 6 7.14346 18.7802 21.6515 -0.00384573 -0.000850289 0.00345268
6 3 7.54811 15.1912 19.8676 0.00347752 0.00965688 0.00147918
4 2 6.39995 17.2138 20.495 0.000351904 0.00342558 0.000612196
1 1 5.99837 19.5412 20.0476 0.00234026 0.00412688 -0.000998071
33 6 6.1083 20.4865 20.5744 0.0048563 0.00748305 -0.00313819
30 3 7.1508 16.8537 18.2069 0.00713046 0.0118043 0.00643379
66 6 6.72523 17.7155 17.8799 0.0121433 0.0163665 0.00948327
67 6 7.96691 18.6159 20.0915 0.00134592 -0.000233768 0.00496042
31 1 7.00468 18.5437 20.596 1.13155e-05 0.00118994 0.00358111
32 6 6.09656 19.677 18.9702 0.000251361 -0.00118074 -0.00262064
97 5 -3.98708 -6.42622 -0.0217782 0.00196676 -0.00943705 0.000448803
49 6 13.7501 17.2763 16.7966 -0.00491553 0.00602523 -0.0077555
54 6 12.5691 20.6614 16.406 -0.0106418 0.0167761 0.0115934
20 1 14.7416 18.9697 17.6511 0.00698652 -0.00527318 0.00472839
51 6 15.442 19.7355 17.3327 0.00650952 -0.00237158 0.0161818
116 5 -0.0122821 -1.92009 -2.9683 0.00350808 -0.000630132 -0.000193418
107 5 -5.18465 -5.79094 -1.91934 0.0033489 0.000254286 -0.000263609
75 3 -3.7097 -6.74378 -1.02351 0.00244605 0.00225074 -0.00247087
93 5 -1.94726 -7.47081 -0.000510995 0.00376252 0.000613267 -0.00513625
50 6 15.1651 18.4194 18.4886 0.00181487 -0.0082989 0.00416066
22 1 12.8711 20.9057 17.4196 0.000969686 0.00777028 0.0110192
98 5 -3.28607 -5.84959 -1.39008 0.00153578 0.00524648 -1.61816e-05
80 3 -4.9691 -6.82898 -1.94452 0.000721091 0.001078 -0.00318081
108 5 -4.83063 -6.96404 -3.0186 0.00177493 -0.0032562 -0.00252662
21 1 13.4546 19.6851 18.1578 0.00067476 0.00396338 -0.000539024
52 6 12.6655 18.9436 18.2983 0.000356506 0.00578522 -0.00591584
53 6 13.693 20.0292 19.1578 -0.00214365 0.000637759 0.000476885
55 6 11.9801 21.1793 17.9783 0.00328139 -0.00465721 0.0158718
82 3 -0.955977 -2.03819 -1.05879 -0.000781139 -0.00155421 0.000820923
111 5 -1.93177 -2.51514 -1.03565 -0.00308254 0.00378644 -0.00257373
92 5 -1.74206 -7.64452 -3.91387 0.00354875 -0.00434197 -0.00392509
72 3 -1.03071 -7.47015 -3.12801 -0.00322681 0.00103148 0.000108395
95 5 -0.921884 -5.49506 -3.90453 0.00281409 -0.00228474 0.00333045
ITEM: TIMESTEP
10030
ITEM: NUMBER OF ATOMS
122
ITEM: BOX BOUNDS pp pp pp
0.0000000000000000e+00 2.0000000000000000e+01
0.0000000000000000e+00 2.0000000000000000e+01
0.0000000000000000e+00 2.0000000000000000e+01
ITEM: ATOMS id type xu yu zu vx vy vz
100 5 -1.13236 -1.67884 3.52416 -0.000834607 -0.00526521 -0.00316306
76 3 -1.99124 -2.16849 3.07866 -0.00217218 -0.000822924 0.000117372
101 5 -3.24711 -1.06727 4.32498 -0.000183759 0.0011611 0.000176875
114 5 -2.88256 1.83006 1.35603 -0.00353666 -0.00274583 -0.00334393
77 3 -3.17998 -1.20559 3.21861 -0.00258744 -0.00135028 0.000342704
109 5 -3.84766 0.727135 3.13456 -0.00668598 -0.00561397 -0.000198254
81 3 -3.27213 0.139487 2.44067 -0.0026186 -0.00335812 -0.00145376
110 5 -3.96947 -0.114339 1.63153 0.000910016 -0.00878187 -0.00368556
84 3 -2.25631 1.28982 2.05862 -0.0051316 -0.00171008 -0.00113657
115 5 -2.08185 1.95816 2.91537 -0.0108687 -0.00301621 0.00158969
70 2 -8.1191 -8.29781 0.504663 0.00189455 0.00341278 -0.00691152
122 6 -7.82551 -10.7725 0.610745 0.00855099 0.00941449 -0.002175
99 5 -2.27047 -2.76183 3.8982 0.00492114 0.00114472 0.000828161
104 5 -1.78547 -4.27187 2.23593 -0.00464091 0.000413986 -0.00217762
102 5 -4.08317 -1.73621 2.90917 -0.00107695 -0.000568222 -0.000634794
10 4 9.4067 13.2883 17.3442 0.00478472 -0.000709938 0.00180028
8 3 8.27324 15.2823 17.6094 0.00420912 0.00312157 -0.00103173
9 3 9.27251 14.478 16.9928 0.00393349 0.00129592 0.000675956
11 3 10.2511 14.8637 16.0484 0.00179117 -0.000286227 -0.00142232
64 6 10.6745 12.9099 15.3495 0.00963717 0.000323356 0.00120785
28 3 10.9398 13.8909 15.3083 0.00501117 0.00152016 0.0012458
65 6 7.94971 16.6406 16.0593 0.00396565 0.00769976 0.00468483
29 3 7.74158 16.4358 17.035 0.00457417 0.00820418 0.00454191
40 6 10.2291 16.9351 16.4343 0.00405717 -0.000796889 0.00106852
12 3 10.6629 16.1902 15.8952 0.003083 -0.00146001 0.000990392
13 3 11.7316 16.5363 15.0897 0.00187172 0.00325569 0.00156704
27 3 12.0115 14.2329 14.4927 0.00311544 0.00573503 0.00343501
63 6 12.5049 13.5041 13.9754 0.00460546 0.00597301 0.00379816
14 3 12.445 15.5517 14.428 -0.00153244 0.00427387 -0.000664351
41 6 12.017 17.5154 15.0156 -0.000671228 0.00315579 0.00264494
43 6 15.4662 14.3927 14.6584 0.00895624 0.0130972 0.00256143
44 6 16.8964 16.0203 15.2572 0.00509592 0.0112938 -0.00407243
15 5 13.9389 15.962 13.6507 -0.00147106 0.004819 0.00177965
16 1 14.905 15.2653 15.0044 0.00273904 0.0080792 0.00213692
42 6 14.2483 14.9678 15.8251 0.0024081 0.0043812 0.000537439
17 1 15.8773 16.3593 15.4337 0.00206714 0.00492174 0.00778156
45 6 15.7206 17.1986 14.7613 -0.011265 0.00744678 0.0140382
46 6 15.8455 16.0446 17.5897 -0.00449704 5.55411e-06 0.00294576
18 1 15.8377 16.8836 16.8922 0.00589535 0.00277041 0.00518476
48 6 14.3455 18.2488 16.1101 0.00929625 0.0116544 0.00539345
47 6 16.7095 17.5119 17.0991 0.00732559 -0.000536359 0.00623979
19 1 14.5449 17.7017 17.0393 0.00543094 0.00294555 7.12362e-05
121 5 -0.0356814 1.06877 1.78782 -0.00264241 0.00172814 0.0106486
62 7 13.1887 23.7961 13.5644 -0.00384953 0.0145637 0.00220846
60 6 12.3766 22.6068 15.4214 0.0172541 -0.0103231 -0.0129733
26 5 13.9496 24.1416 14.6515 9.17572e-05 -0.00118354 0.00542256
119 5 -0.916663 2.46138 1.14668 -0.00675039 -0.000577181 0.00126707
87 3 -0.935462 1.38027 1.24412 -0.00190333 -0.000858867 0.00306121
61 6 11.9652 24.2537 15.8941 -0.0137463 -0.0195547 -0.00324148
25 1 12.7732 23.5359 15.8218 0.00204926 -0.00536491 -0.000793938
59 6 14.27 24.0785 17.3198 0.00322611 0.00301501 0.0065455
58 6 12.7739 23.51 18.0093 0.00874314 0.00342685 0.0155842
24 1 13.4875 23.329 17.2045 0.000707288 0.00368019 0.00842189
57 6 14.9309 21.7195 16.7875 0.00600788 -0.000846477 0.00936966
120 5 -0.858571 1.04186 0.198599 0.00215476 -0.00252167 0.0024282
112 5 -1.8776 -2.12723 0.14196 -0.00158201 -0.00378019 -0.00479953
23 1 14.1017 21.9324 17.4663 0.00228294 0.00303003 0.00493735
56 6 14.5041 21.9578 18.4788 -0.0027128 0.0068042 0.00613513
89 5 -1.61665 -9.85715 -0.55227 0.00405472 0.0027161 -0.00229935
39 6 8.02328 14.0638 19.2977 -0.00722752 0.0010034 -0.00612819
38 6 6.64761 15.5987 20.5309 0.00504685 0.0119899 0.00181197
7 3 7.75957 14.9526 18.8642 -0.00136082 0.00362199 -0.0023257
94 5 -4.09194 -9.78995 0.0898384 -0.00564975 0.000836622 -0.00402099
118 5 -7.91227 -7.72703 -1.7632 -0.00260455 0.0033956 -0.00515928
69 1 -7.40031 -10.3402 -0.159779 0.00845991 0.00550938 -0.00373955
88 4 -7.48507 -9.00288 -0.313206 0.0041906 0.00393776 -0.00529028
90 5 -2.88393 -9.9798 -1.74934 -0.00380598 -0.00210938 -0.00516368
117 5 -6.97412 -9.07685 -2.40364 -0.00359509 -0.00462963 0.00114977
86 3 -7.06152 -8.39051 -1.5485 0.00088542 0.00379638 -0.00461167
73 3 -3.54582 -8.8598 -0.110077 -0.00050397 -0.00218687 -0.00299606
71 3 -2.39874 -9.2789 -1.07207 -0.00206781 -0.00357824 -0.00332635
103 5 -0.452542 -3.13542 2.10598 -0.00241183 -0.000425553 0.00859314
78 3 -1.53179 -3.23202 1.97667 -0.00312105 0.000270383 0.000352375
36 6 3.81172 17.8289 20.1033 -0.00308801 0.00436102 -0.00510681
37 6 4.31995 17.7884 18.4008 0.00232214 0.0127385 -0.00501743
3 1 4.51301 18.2343 19.3746 6.61144e-05 0.00491632 -0.00187183
2 1 4.36445 19.7502 19.3229 0.00158153 0.00444886 0.00298126
35 6 3.65712 20.0709 18.549 -0.00192811 -0.000506851 0.00824139
34 6 4.02488 20.1036 20.2983 0.005212 0.00191867 0.00431635
105 5 0.698306 -6.54969 -0.67739 0.000334729 -0.00594972 0.00293292
106 5 -0.737418 -6.61792 0.16487 -0.00218941 -0.00628319 -0.00734526
79 3 -0.32979 -6.2707 -0.74864 0.00173224 -0.00286082 -0.0018724
91 5 -0.847542 -9.07191 -2.17728 -0.00382797 -0.000642519 0.00115136
113 5 0.944428 -4.61451 -1.057 -0.00598249 -0.00165463 -0.00148797