LAMMPS (8 Feb 2023)
OMP_NUM_THREADS environment is not set. Defaulting to 1 thread. (src/comm.cpp:98)
  using 1 OpenMP thread(s) per MPI task
# define variables

variable       spacing index 10.0
variable       lbox index 20.0
variable       sname string simplified_mc
variable       rtemp index 300


#package omp 4

units           real
atom_style      full
boundary        p p p
#pair_style      lj/cut/coul/long  14
pair_style      lj/charmm/coul/long/opt 9 10.00000
#pair_modify     mix arithmetic tail yes
#special_bonds   lj/coul 0.0 0.0 1.0
#kspace_style    ewald 0.0001
bond_style      harmonic
angle_style     harmonic
dihedral_style  harmonic
improper_style  umbrella
kspace_style    pppm 0.0001

# initialize a simple cumbic box for the initial structure

lattice        sc ${spacing}
lattice        sc 10.0
Lattice spacing in x,y,z = 10 10 10
region         mybox block 0 ${lbox} 0 ${lbox} 0 ${lbox} units box
region         mybox block 0 20.0 0 ${lbox} 0 ${lbox} units box
region         mybox block 0 20.0 0 20.0 0 ${lbox} units box
region         mybox block 0 20.0 0 20.0 0 20.0 units box
create_box     8 mybox                bond/types 13                angle/types 5                dihedral/types 11                improper/types 1                extra/bond/per/atom 13                extra/angle/per/atom 10                extra/dihedral/per/atom 20                extra/improper/per/atom 20                extra/special/per/atom 100
Created orthogonal box = (0 0 0) to (20 20 20)
  1 by 1 by 1 MPI processor grid

molecule       69 xlig.lammps.txt
Read molecule template 69:
  1 molecules
  0 fragments
  68 atoms with max type 7
  70 bonds with max type 10
  128 angles with max type 4
  188 dihedrals with max type 11
  39 impropers with max type 1
molecule       420 oleic.lammps.txt
Read molecule template 420:
  1 molecules
  0 fragments
  54 atoms with max type 6
  53 bonds with max type 13
  100 angles with max type 5
  141 dihedrals with max type 9
  9 impropers with max type 1


pair_modify          mix geometric
#neighbor             2.0 multi
#neigh_modify         every 2 delay 4 check yes
thermo_style         multi
thermo_modify        line multi format float %14.6f flush yes



# originally used box instead of single, which takes no args and auto populates the box until full
create_atoms   0 single 10 10 10   mol 69 42 units box
Created 68 atoms
  using box units in orthogonal box = (0 0 0) to (20 20 20)
  create_atoms CPU = 0.001 seconds
create_atoms   0 single 0 0 0  mol 420 42 units box
Created 54 atoms
  using box units in orthogonal box = (0 0 0) to (20 20 20)
  create_atoms CPU = 0.000 seconds


group xligand molecule == 69
0 atoms in group xligand
#group xligand id 1:68
#group xligand include molecule

group oleic_acid molecule == 420
0 atoms in group oleic_acid
#group oleic_acid id 69:122
#group oleic_acid include molecule



# coeffs
# Masses

mass    1 1.2011E+01 # C_3
mass    2 1.4007E+01 # N_3
mass    3 1.2011E+01 # C_R
mass    4 1.5999E+01 # O_2
mass    5 3.2060E+01 # S_3
mass    6 1.0080E+00 # H_
mass    7 1.0080E+00 # H___A
mass    8 1.5999E+01 # O_R


pair_coeff           1 1 0.09510000 3.47299041 # C_3 C_3
pair_coeff           2 2 0.07740000 3.26256026 # N_3 N_3
pair_coeff           3 3 0.09510000 3.47299041 # C_R C_R
pair_coeff           4 4 0.09570000 3.03315369 # O_2 O_2
pair_coeff           5 5 0.34400001 3.59032202 # S_3 S_3
pair_coeff           6 6 0.01520000 2.84642134 # H_ H_
pair_coeff           7 7 0.01520000 2.84642134 # H___A H___A
pair_coeff           8 8 0.09570000 3.03315369 # O_R O_R


pair_modify          mix geometric
neighbor             2.0 multi
neigh_modify         every 2 delay 4 check yes
thermo_style         multi
WARNING: New thermo_style command, previous thermo_modify settings will be lost (src/output.cpp:896)
thermo_modify        line multi format float %14.6f flush yes

bond_coeff           1 350 1.53000 # C_3 C_3
bond_coeff           2 350 1.09000 # C_3 H_
bond_coeff           3 350 1.46200 # N_3 C_3
bond_coeff           4 350 1.39200 # N_3 C_R
bond_coeff           5 525 1.39000 # C_R C_R
bond_coeff           6 350 1.02000 # C_R H_
bond_coeff           7 700 1.25000 # O_2 C_R
bond_coeff           8 350 1.73000 # S_3 C_R
bond_coeff           9 350 1.80000 # S_3 C_3
bond_coeff           10 350 1.36000 # S_3 H___A
bond_coeff           11 525 1.35000 # O_R C_R
bond_coeff           12 350 0.98000 # O_R H___A
bond_coeff           13 350 1.46000 # C_R C_3


angle_coeff          1 50 109.47100 # X C_3 X
angle_coeff          2 50 106.70000 # X N_3 X
angle_coeff          3 50 120 # X C_R X
angle_coeff          4 50 92.10000 # X S_3 X
angle_coeff          5 50 120 # X O_R X


dihedral_coeff       1 0.08333 -1 6 # C_R C_R C_3 X
dihedral_coeff       2 0.08333 -1 6 # O_2 C_R C_3 X
dihedral_coeff       3 0.08333 -1 6 # O_R C_R C_3 X
dihedral_coeff       4 0.11111 1 3 # X C_3 C_3 X
dihedral_coeff       5 0.16667 1 3 # X C_R C_3 X
dihedral_coeff       6 3.12500 -1 2 # X C_R C_R X
dihedral_coeff       7 0.16667 1 3 # X N_3 C_3 X
dihedral_coeff       8 0.12500 -1 6 # X N_3 C_R C_R
dihedral_coeff       9 6.25000 -1 2 # X O_R C_R X
dihedral_coeff       10 0.33333 1 3 # X S_3 C_3 X
dihedral_coeff       11 0.50000 -1 2 # X S_3 C_R X

improper_coeff       1 13.33333 0 # C_R X X X

timestep             0.5

print                .
.
print                ==========================================
==========================================
print                "500 steps CG Minimization"
500 steps CG Minimization
print                ==========================================
==========================================
print                .
.

dump                 1 all custom 25 ${sname}.min.lammpstrj id type xu yu zu vx vy vz
dump                 1 all custom 25 simplified_mc.min.lammpstrj id type xu yu zu vx vy vz
thermo               10
min_style            cg
minimize             1.0e-4 1.0e-4 500 5000

CITE-CITE-CITE-CITE-CITE-CITE-CITE-CITE-CITE-CITE-CITE-CITE-CITE

Your simulation uses code contributions which should be cited:

- neighbor multi command: doi:10.1016/j.cpc.2008.03.005, doi:10.1007/s40571-020-00361-2

@Article{Intveld08,
 author =  {in 't Veld, P. J. and S. J.~Plimpton and G. S. Grest},
 title =   {Accurate and Efficient Methods for Modeling Colloidal
            Mixtures in an Explicit Solvent using Molecular Dynamics},
 journal = {Comput.\ Phys.\ Commut.},
 year =    2008,
 volume =  179,
 pages =   {320--329}
}

@article{Shire2020,
 author = {Shire, Tom and Hanley, Kevin J. and Stratford, Kevin},
 title = {{DEM} Simulations of Polydisperse Media: Efficient Contact
          Detection Applied to Investigate the Quasi-Static Limit},
 journal = {Computational Particle Mechanics},
 year = {2020}
}

CITE-CITE-CITE-CITE-CITE-CITE-CITE-CITE-CITE-CITE-CITE-CITE-CITE

Switching to 'neigh_modify every 1 delay 0 check yes' setting during minimization
PPPM initialization ...
WARNING: System is not charge neutral, net charge = -0.0006 (src/kspace.cpp:327)
  using 12-bit tables for long-range coulomb (src/kspace.cpp:342)
  G vector (1/distance) = 0.14809026
  grid = 3 3 3
  stencil order = 5
  estimated absolute RMS force accuracy = 0.031780157
  estimated relative force accuracy = 9.5704998e-05
  using double precision FFTW3
  3d grid and FFT values/proc = 512 27
Generated 28 of 28 mixed pair_coeff terms from geometric mixing rule
Neighbor list info ...
  update: every = 1 steps, delay = 0 steps, check = yes
  max neighbors/atom: 2000, page size: 100000
  master list distance cutoff = 12
  ghost atom cutoff = 12
  binsize = 6, bins = 4 4 4
  1 neighbor lists, perpetual/occasional/extra = 1 0 0
  (1) pair lj/charmm/coul/long/opt, perpetual
      attributes: half, newton on
      pair build: half/multi/newton
      stencil: half/multi/3d
      bin: multi
Per MPI rank memory allocation (min/avg/max) = 31.79 | 31.79 | 31.79 Mbytes
------------ Step              0 ----- CPU =            0 (sec) -------------
TotEng   =   47704.531398 KinEng   =       0.000000 Temp     =       0.000000 
PotEng   =   47704.531398 E_bond   =     110.088059 E_angle  =      36.601372 
E_dihed  =      19.805602 E_impro  =       3.329327 E_vdwl   =   47535.850125 
E_coul   =      24.998785 E_long   =     -26.141872 Press    = 1638373.071719
------------ Step             10 ----- CPU =  0.002544466 (sec) -------------
TotEng   =     597.919516 KinEng   =       0.000000 Temp     =       0.000000 
PotEng   =     597.919516 E_bond   =      29.092403 E_angle  =     169.454584 
E_dihed  =      21.557370 E_impro  =       0.961529 E_vdwl   =     378.488320 
E_coul   =      24.477600 E_long   =     -26.112289 Press    =   19084.374650
------------ Step             20 ----- CPU =    0.0062041 (sec) -------------
TotEng   =     251.396861 KinEng   =       0.000000 Temp     =       0.000000 
PotEng   =     251.396861 E_bond   =      35.486760 E_angle  =     124.681428 
E_dihed  =      28.320316 E_impro  =       0.442898 E_vdwl   =      64.429754 
E_coul   =      24.144610 E_long   =     -26.108906 Press    =    2737.929194
------------ Step             30 ----- CPU =   0.01024501 (sec) -------------
TotEng   =     227.510758 KinEng   =       0.000000 Temp     =       0.000000 
PotEng   =     227.510758 E_bond   =      39.577244 E_angle  =     129.257624 
E_dihed  =      30.448878 E_impro  =       0.382553 E_vdwl   =      29.787384 
E_coul   =      24.171751 E_long   =     -26.114676 Press    =     323.128047
------------ Step             40 ----- CPU =   0.01405289 (sec) -------------
TotEng   =     221.202066 KinEng   =       0.000000 Temp     =       0.000000 
PotEng   =     221.202066 E_bond   =      34.449712 E_angle  =     129.073060 
E_dihed  =      30.985233 E_impro  =       0.486444 E_vdwl   =      28.217652 
E_coul   =      24.114003 E_long   =     -26.124038 Press    =     324.947277
------------ Step             50 ----- CPU =   0.01803096 (sec) -------------
TotEng   =     216.984425 KinEng   =       0.000000 Temp     =       0.000000 
PotEng   =     216.984425 E_bond   =      33.867042 E_angle  =     124.137549 
E_dihed  =      31.078109 E_impro  =       0.644359 E_vdwl   =      29.434645 
E_coul   =      23.958120 E_long   =     -26.135399 Press    =     393.026681
------------ Step             60 ----- CPU =   0.02243975 (sec) -------------
TotEng   =     212.376312 KinEng   =       0.000000 Temp     =       0.000000 
PotEng   =     212.376312 E_bond   =      32.941824 E_angle  =     125.713100 
E_dihed  =      31.963390 E_impro  =       0.640466 E_vdwl   =      23.375100 
E_coul   =      23.887585 E_long   =     -26.145153 Press    =      12.192140
------------ Step             70 ----- CPU =   0.02632557 (sec) -------------
TotEng   =     210.388893 KinEng   =       0.000000 Temp     =       0.000000 
PotEng   =     210.388893 E_bond   =      31.695075 E_angle  =     125.601752 
E_dihed  =      32.816769 E_impro  =       0.503935 E_vdwl   =      22.047261 
E_coul   =      23.870763 E_long   =     -26.146662 Press    =       0.953718
------------ Step             80 ----- CPU =   0.03034226 (sec) -------------
TotEng   =     209.037808 KinEng   =       0.000000 Temp     =       0.000000 
PotEng   =     209.037808 E_bond   =      30.765731 E_angle  =     124.674160 
E_dihed  =      32.306652 E_impro  =       0.411739 E_vdwl   =      23.240006 
E_coul   =      23.783403 E_long   =     -26.143883 Press    =      33.862889
------------ Step             90 ----- CPU =   0.03415733 (sec) -------------
TotEng   =     207.436790 KinEng   =       0.000000 Temp     =       0.000000 
PotEng   =     207.436790 E_bond   =      31.224543 E_angle  =     123.482883 
E_dihed  =      31.372589 E_impro  =       0.516818 E_vdwl   =      23.317991 
E_coul   =      23.659404 E_long   =     -26.137439 Press    =    -164.622776
------------ Step            100 ----- CPU =   0.03876462 (sec) -------------
TotEng   =     206.144958 KinEng   =       0.000000 Temp     =       0.000000 
PotEng   =     206.144958 E_bond   =      31.527668 E_angle  =     124.278802 
E_dihed  =      30.526361 E_impro  =       0.589951 E_vdwl   =      21.593880 
E_coul   =      23.758817 E_long   =     -26.130521 Press    =    -305.502730
------------ Step            110 ----- CPU =   0.04264187 (sec) -------------
TotEng   =     205.068733 KinEng   =       0.000000 Temp     =       0.000000 
PotEng   =     205.068733 E_bond   =      31.300823 E_angle  =     123.411420 
E_dihed  =      29.609459 E_impro  =       0.556986 E_vdwl   =      22.549602 
E_coul   =      23.766706 E_long   =     -26.126264 Press    =    -207.332943
------------ Step            120 ----- CPU =   0.04648675 (sec) -------------
TotEng   =     204.337625 KinEng   =       0.000000 Temp     =       0.000000 
PotEng   =     204.337625 E_bond   =      30.995371 E_angle  =     123.622079 
E_dihed  =      28.601288 E_impro  =       0.552708 E_vdwl   =      22.938222 
E_coul   =      23.754323 E_long   =     -26.126367 Press    =     -90.006912
------------ Step            130 ----- CPU =    0.0505203 (sec) -------------
TotEng   =     203.712835 KinEng   =       0.000000 Temp     =       0.000000 
PotEng   =     203.712835 E_bond   =      30.946840 E_angle  =     124.576712 
E_dihed  =      28.038090 E_impro  =       0.551832 E_vdwl   =      22.006554 
E_coul   =      23.721287 E_long   =     -26.128478 Press    =    -102.761174
------------ Step            140 ----- CPU =   0.05435371 (sec) -------------
TotEng   =     203.076027 KinEng   =       0.000000 Temp     =       0.000000 
PotEng   =     203.076027 E_bond   =      31.058000 E_angle  =     125.232856 
E_dihed  =      27.734492 E_impro  =       0.596107 E_vdwl   =      20.880324 
E_coul   =      23.705077 E_long   =     -26.130830 Press    =    -113.296397
------------ Step            150 ----- CPU =   0.05836132 (sec) -------------
TotEng   =     202.448068 KinEng   =       0.000000 Temp     =       0.000000 
PotEng   =     202.448068 E_bond   =      30.765917 E_angle  =     125.625472 
E_dihed  =      26.856765 E_impro  =       0.559692 E_vdwl   =      21.094028 
E_coul   =      23.678588 E_long   =     -26.132394 Press    =     -50.091860
------------ Step            160 ----- CPU =   0.06276306 (sec) -------------
TotEng   =     201.532614 KinEng   =       0.000000 Temp     =       0.000000 
PotEng   =     201.532614 E_bond   =      30.832273 E_angle  =     126.625680 
E_dihed  =      25.289638 E_impro  =       0.583810 E_vdwl   =      20.732425 
E_coul   =      23.599013 E_long   =     -26.130225 Press    =     -70.819276
------------ Step            170 ----- CPU =   0.06661821 (sec) -------------
TotEng   =     200.844254 KinEng   =       0.000000 Temp     =       0.000000 
PotEng   =     200.844254 E_bond   =      31.575068 E_angle  =     128.899701 
E_dihed  =      24.434173 E_impro  =       0.544531 E_vdwl   =      17.961108 
E_coul   =      23.557376 E_long   =     -26.127705 Press    =    -302.190899
------------ Step            180 ----- CPU =   0.07063839 (sec) -------------
TotEng   =     200.389736 KinEng   =       0.000000 Temp     =       0.000000 
PotEng   =     200.389736 E_bond   =      31.270712 E_angle  =     129.039978 
E_dihed  =      24.318035 E_impro  =       0.536117 E_vdwl   =      17.831860 
E_coul   =      23.520631 E_long   =     -26.127597 Press    =    -303.459784
------------ Step            188 ----- CPU =   0.07405513 (sec) -------------
TotEng   =     200.016302 KinEng   =       0.000000 Temp     =       0.000000 
PotEng   =     200.016302 E_bond   =      31.129215 E_angle  =     128.151704 
E_dihed  =      24.369723 E_impro  =       0.493734 E_vdwl   =      18.607637 
E_coul   =      23.392618 E_long   =     -26.128328 Press    =    -244.611825
Loop time of 0.0740671 on 1 procs for 188 steps with 122 atoms

99.4% CPU use with 1 MPI tasks x 1 OpenMP threads

Minimization stats:
  Stopping criterion = energy tolerance
  Energy initial, next-to-last, final = 
      47704.5313982105     200.0313189902   200.016301751765
  Force two-norm initial, final = 806464.23 7.9368788
  Force max component initial, final = 496010.83 2.4948871
  Final line search alpha, max atom move = 0.0072625632 0.018119275
  Iterations, force evaluations = 188 365

MPI task timing breakdown:
Section |  min time  |  avg time  |  max time  |%varavg| %total
---------------------------------------------------------------
Pair    | 0.040765   | 0.040765   | 0.040765   |   0.0 | 55.04
Bond    | 0.012318   | 0.012318   | 0.012318   |   0.0 | 16.63
Kspace  | 0.014748   | 0.014748   | 0.014748   |   0.0 | 19.91
Neigh   | 0.0019922  | 0.0019922  | 0.0019922  |   0.0 |  2.69
Comm    | 0.0016708  | 0.0016708  | 0.0016708  |   0.0 |  2.26
Output  | 0.0014944  | 0.0014944  | 0.0014944  |   0.0 |  2.02
Modify  | 0          | 0          | 0          |   0.0 |  0.00
Other   |            | 0.001079   |            |       |  1.46

Nlocal:            122 ave         122 max         122 min
Histogram: 1 0 0 0 0 0 0 0 0 0
Nghost:           1243 ave        1243 max        1243 min
Histogram: 1 0 0 0 0 0 0 0 0 0
Neighs:           6227 ave        6227 max        6227 min
Histogram: 1 0 0 0 0 0 0 0 0 0

Total # of neighbors = 6227
Ave neighs/atom = 51.040984
Ave special neighs/atom = 10.967213
Neighbor list builds = 4
Dangerous builds = 0
min_style            sd
minimize             1.0e-4 1.0e-4 500 5000
Switching to 'neigh_modify every 1 delay 0 check yes' setting during minimization
PPPM initialization ...
  using 12-bit tables for long-range coulomb (src/kspace.cpp:342)
  G vector (1/distance) = 0.14809026
  grid = 3 3 3
  stencil order = 5
  estimated absolute RMS force accuracy = 0.031780157
  estimated relative force accuracy = 9.5704998e-05
  using double precision FFTW3
  3d grid and FFT values/proc = 512 27
Generated 28 of 28 mixed pair_coeff terms from geometric mixing rule
Per MPI rank memory allocation (min/avg/max) = 31.79 | 31.79 | 31.79 Mbytes
------------ Step            188 ----- CPU =            0 (sec) -------------
TotEng   =     200.016302 KinEng   =       0.000000 Temp     =       0.000000 
PotEng   =     200.016302 E_bond   =      31.129215 E_angle  =     128.151704 
E_dihed  =      24.369723 E_impro  =       0.493734 E_vdwl   =      18.607637 
E_coul   =      23.392618 E_long   =     -26.128328 Press    =    -244.611825
------------ Step            189 ----- CPU =  0.000782994 (sec) -------------
TotEng   =     200.003072 KinEng   =       0.000000 Temp     =       0.000000 
PotEng   =     200.003072 E_bond   =      31.114368 E_angle  =     128.172010 
E_dihed  =      24.372752 E_impro  =       0.491815 E_vdwl   =      18.588556 
E_coul   =      23.391986 E_long   =     -26.128414 Press    =    -238.604737
Loop time of 0.000794917 on 1 procs for 1 steps with 122 atoms

99.8% CPU use with 1 MPI tasks x 1 OpenMP threads

Minimization stats:
  Stopping criterion = energy tolerance
  Energy initial, next-to-last, final = 
      200.016301751765   200.016301751765   200.003071556374
  Force two-norm initial, final = 7.9368788 3.81103
  Force max component initial, final = 2.4948871 0.90752967
  Final line search alpha, max atom move = 0.040081973 0.03637558
  Iterations, force evaluations = 1 2

MPI task timing breakdown:
Section |  min time  |  avg time  |  max time  |%varavg| %total
---------------------------------------------------------------
Pair    | 0.00035914 | 0.00035914 | 0.00035914 |   0.0 | 45.18
Bond    | 0.00010548 | 0.00010548 | 0.00010548 |   0.0 | 13.27
Kspace  | 0.0001215  | 0.0001215  | 0.0001215  |   0.0 | 15.28
Neigh   | 0          | 0          | 0          |   0.0 |  0.00
Comm    | 1.3156e-05 | 1.3156e-05 | 1.3156e-05 |   0.0 |  1.66
Output  | 0          | 0          | 0          |   0.0 |  0.00
Modify  | 0          | 0          | 0          |   0.0 |  0.00
Other   |            | 0.0001956  |            |       | 24.61

Nlocal:            122 ave         122 max         122 min
Histogram: 1 0 0 0 0 0 0 0 0 0
Nghost:           1239 ave        1239 max        1239 min
Histogram: 1 0 0 0 0 0 0 0 0 0
Neighs:           6211 ave        6211 max        6211 min
Histogram: 1 0 0 0 0 0 0 0 0 0

Total # of neighbors = 6211
Ave neighs/atom = 50.909836
Ave special neighs/atom = 10.967213
Neighbor list builds = 0
Dangerous builds = 0
#now                 minimize the entire system
minimize             1.0e-4 1.0e-4 500 5000
Switching to 'neigh_modify every 1 delay 0 check yes' setting during minimization
PPPM initialization ...
  using 12-bit tables for long-range coulomb (src/kspace.cpp:342)
  G vector (1/distance) = 0.14809026
  grid = 3 3 3
  stencil order = 5
  estimated absolute RMS force accuracy = 0.031780157
  estimated relative force accuracy = 9.5704998e-05
  using double precision FFTW3
  3d grid and FFT values/proc = 512 27
Generated 28 of 28 mixed pair_coeff terms from geometric mixing rule
Per MPI rank memory allocation (min/avg/max) = 31.79 | 31.79 | 31.79 Mbytes
------------ Step            189 ----- CPU =            0 (sec) -------------
TotEng   =     200.003072 KinEng   =       0.000000 Temp     =       0.000000 
PotEng   =     200.003072 E_bond   =      31.114368 E_angle  =     128.172010 
E_dihed  =      24.372752 E_impro  =       0.491815 E_vdwl   =      18.588556 
E_coul   =      23.391986 E_long   =     -26.128414 Press    =    -238.604737
------------ Step            190 ----- CPU =   0.00079125 (sec) -------------
TotEng   =     199.999419 KinEng   =       0.000000 Temp     =       0.000000 
PotEng   =     199.999419 E_bond   =      31.085559 E_angle  =     128.210009 
E_dihed  =      24.378618 E_impro  =       0.491077 E_vdwl   =      18.567555 
E_coul   =      23.394978 E_long   =     -26.128377 Press    =    -236.984364
Loop time of 0.000802632 on 1 procs for 1 steps with 122 atoms

97.4% CPU use with 1 MPI tasks x 1 OpenMP threads

Minimization stats:
  Stopping criterion = energy tolerance
  Energy initial, next-to-last, final = 
      200.003071556374   200.003071556374   199.999418856088
  Force two-norm initial, final = 3.81103 5.2339648
  Force max component initial, final = 0.90752967 1.7096814
  Final line search alpha, max atom move = 0.11018924 0.18838849
  Iterations, force evaluations = 1 2

MPI task timing breakdown:
Section |  min time  |  avg time  |  max time  |%varavg| %total
---------------------------------------------------------------
Pair    | 0.00036131 | 0.00036131 | 0.00036131 |   0.0 | 45.02
Bond    | 0.00011216 | 0.00011216 | 0.00011216 |   0.0 | 13.97
Kspace  | 0.00012166 | 0.00012166 | 0.00012166 |   0.0 | 15.16
Neigh   | 0          | 0          | 0          |   0.0 |  0.00
Comm    | 1.3235e-05 | 1.3235e-05 | 1.3235e-05 |   0.0 |  1.65
Output  | 0          | 0          | 0          |   0.0 |  0.00
Modify  | 0          | 0          | 0          |   0.0 |  0.00
Other   |            | 0.0001943  |            |       | 24.20

Nlocal:            122 ave         122 max         122 min
Histogram: 1 0 0 0 0 0 0 0 0 0
Nghost:           1239 ave        1239 max        1239 min
Histogram: 1 0 0 0 0 0 0 0 0 0
Neighs:           6211 ave        6211 max        6211 min
Histogram: 1 0 0 0 0 0 0 0 0 0

Total # of neighbors = 6211
Ave neighs/atom = 50.909836
Ave special neighs/atom = 10.967213
Neighbor list builds = 0
Dangerous builds = 0
undump               1

print                .
.
print                =====================================
=====================================
print                "NVT dynamics to heat system"
NVT dynamics to heat system
print                =====================================
=====================================
print                .
.

reset_timestep       0
##fix                  shakeH all shake 0.0001 20 500 m 1.0079
velocity             all create 0.0 12345678 dist uniform
thermo               100
dump                 1 all custom 1000 ${sname}.heat.lammpstrj id type xu yu zu vx vy vz
dump                 1 all custom 1000 simplified_mc.heat.lammpstrj id type xu yu zu vx vy vz
fix                  4 all nvt temp 1.0 300.0 100.0
run                  10000
PPPM initialization ...
  using 12-bit tables for long-range coulomb (src/kspace.cpp:342)
  G vector (1/distance) = 0.14809026
  grid = 3 3 3
  stencil order = 5
  estimated absolute RMS force accuracy = 0.031780157
  estimated relative force accuracy = 9.5704998e-05
  using double precision FFTW3
  3d grid and FFT values/proc = 512 27
Generated 28 of 28 mixed pair_coeff terms from geometric mixing rule
Per MPI rank memory allocation (min/avg/max) = 30.66 | 30.66 | 30.66 Mbytes
------------ Step              0 ----- CPU =            0 (sec) -------------
TotEng   =     199.999419 KinEng   =       0.000000 Temp     =       0.000000 
PotEng   =     199.999419 E_bond   =      31.085559 E_angle  =     128.210009 
E_dihed  =      24.378618 E_impro  =       0.491077 E_vdwl   =      18.567555 
E_coul   =      23.394978 E_long   =     -26.128377 Press    =    -236.984364
------------ Step            100 ----- CPU =   0.01377808 (sec) -------------
TotEng   =     200.060578 KinEng   =       0.350402 Temp     =       0.971510 
PotEng   =     199.710175 E_bond   =      31.026963 E_angle  =     127.785420 
E_dihed  =      24.801527 E_impro  =       0.526995 E_vdwl   =      18.271535 
E_coul   =      23.427355 E_long   =     -26.129621 Press    =    -204.096128
------------ Step            200 ----- CPU =   0.02720343 (sec) -------------
TotEng   =     200.230302 KinEng   =       0.807110 Temp     =       2.237758 
PotEng   =     199.423192 E_bond   =      31.080928 E_angle  =     127.257743 
E_dihed  =      25.359102 E_impro  =       0.571894 E_vdwl   =      17.778007 
E_coul   =      23.502880 E_long   =     -26.127362 Press    =    -153.092541
------------ Step            300 ----- CPU =    0.0405587 (sec) -------------
TotEng   =     200.439109 KinEng   =       1.181522 Temp     =       3.275837 
PotEng   =     199.257587 E_bond   =      30.858158 E_angle  =     127.069527 
E_dihed  =      26.215343 E_impro  =       0.650962 E_vdwl   =      17.107301 
E_coul   =      23.483657 E_long   =     -26.127361 Press    =    -156.617981
------------ Step            400 ----- CPU =    0.0539242 (sec) -------------
TotEng   =     200.840299 KinEng   =       1.893113 Temp     =       5.248762 
PotEng   =     198.947185 E_bond   =      30.293878 E_angle  =     127.051391 
E_dihed  =      26.834993 E_impro  =       0.699413 E_vdwl   =      16.705850 
E_coul   =      23.489338 E_long   =     -26.127678 Press    =     -58.024906
------------ Step            500 ----- CPU =   0.06728184 (sec) -------------
TotEng   =     201.523315 KinEng   =       2.824078 Temp     =       7.829914 
PotEng   =     198.699237 E_bond   =      30.213401 E_angle  =     127.743570 
E_dihed  =      26.880652 E_impro  =       0.649986 E_vdwl   =      15.809140 
E_coul   =      23.525594 E_long   =     -26.123106 Press    =    -106.091622
------------ Step            600 ----- CPU =   0.08060208 (sec) -------------
TotEng   =     202.428743 KinEng   =       3.640881 Temp     =      10.094546 
PotEng   =     198.787862 E_bond   =      30.386252 E_angle  =     128.897879 
E_dihed  =      26.968658 E_impro  =       0.533562 E_vdwl   =      14.578000 
E_coul   =      23.545122 E_long   =     -26.121611 Press    =    -190.431340
------------ Step            700 ----- CPU =    0.0939661 (sec) -------------
TotEng   =     203.475892 KinEng   =       4.301597 Temp     =      11.926419 
PotEng   =     199.174295 E_bond   =      30.475359 E_angle  =     129.258932 
E_dihed  =      27.100455 E_impro  =       0.469053 E_vdwl   =      14.482615 
E_coul   =      23.509724 E_long   =     -26.121843 Press    =    -183.841199
------------ Step            800 ----- CPU =    0.1081604 (sec) -------------
TotEng   =     204.774841 KinEng   =       5.253816 Temp     =      14.566500 
PotEng   =     199.521025 E_bond   =      30.412690 E_angle  =     128.982473 
E_dihed  =      26.996621 E_impro  =       0.487578 E_vdwl   =      15.251391 
E_coul   =      23.511678 E_long   =     -26.121407 Press    =     -88.732212
------------ Step            900 ----- CPU =    0.1216481 (sec) -------------
TotEng   =     206.460602 KinEng   =       7.334755 Temp     =      20.336019 
PotEng   =     199.125847 E_bond   =      30.777379 E_angle  =     127.578046 
E_dihed  =      27.079707 E_impro  =       0.480531 E_vdwl   =      15.809631 
E_coul   =      23.528591 E_long   =     -26.128039 Press    =     -28.819017
------------ Step           1000 ----- CPU =    0.1360071 (sec) -------------
TotEng   =     208.438637 KinEng   =       9.879548 Temp     =      27.391600 
PotEng   =     198.559089 E_bond   =      32.122355 E_angle  =     126.604571 
E_dihed  =      27.499377 E_impro  =       0.468632 E_vdwl   =      14.603359 
E_coul   =      23.395715 E_long   =     -26.134921 Press    =    -125.044548
------------ Step           1100 ----- CPU =     0.149495 (sec) -------------
TotEng   =     210.729061 KinEng   =      12.005911 Temp     =      33.287062 
PotEng   =     198.723150 E_bond   =      32.993907 E_angle  =     127.368372 
E_dihed  =      27.375147 E_impro  =       0.529814 E_vdwl   =      13.065280 
E_coul   =      23.529028 E_long   =     -26.138399 Press    =    -278.330324
------------ Step           1200 ----- CPU =    0.1635754 (sec) -------------
TotEng   =     212.751491 KinEng   =      14.760145 Temp     =      40.923328 
PotEng   =     197.991346 E_bond   =      32.219323 E_angle  =     127.793287 
E_dihed  =      26.937473 E_impro  =       0.583834 E_vdwl   =      13.074746 
E_coul   =      23.526977 E_long   =     -26.144293 Press    =    -243.051057
------------ Step           1300 ----- CPU =    0.1776038 (sec) -------------
TotEng   =     214.041911 KinEng   =      14.140314 Temp     =      39.204814 
PotEng   =     199.901597 E_bond   =      30.604213 E_angle  =     128.841174 
E_dihed  =      26.741370 E_impro  =       0.580619 E_vdwl   =      15.886159 
E_coul   =      23.401277 E_long   =     -26.153215 Press    =      -1.893683
------------ Step           1400 ----- CPU =     0.191088 (sec) -------------
TotEng   =     215.194491 KinEng   =      12.294829 Temp     =      34.088102 
PotEng   =     202.899662 E_bond   =      30.659489 E_angle  =     131.800321 
E_dihed  =      28.141471 E_impro  =       0.507121 E_vdwl   =      14.629727 
E_coul   =      23.327312 E_long   =     -26.165779 Press    =     -89.394184
------------ Step           1500 ----- CPU =    0.2052641 (sec) -------------
TotEng   =     217.203324 KinEng   =      12.467930 Temp     =      34.568034 
PotEng   =     204.735394 E_bond   =      31.690990 E_angle  =     135.096712 
E_dihed  =      28.943118 E_impro  =       0.591780 E_vdwl   =      11.268768 
E_coul   =      23.319480 E_long   =     -26.175454 Press    =    -415.283237
------------ Step           1600 ----- CPU =    0.2187631 (sec) -------------
TotEng   =     220.067162 KinEng   =      14.767380 Temp     =      40.943388 
PotEng   =     205.299782 E_bond   =      30.924783 E_angle  =     134.624926 
E_dihed  =      30.599193 E_impro  =       0.751166 E_vdwl   =      11.144225 
E_coul   =      23.429477 E_long   =     -26.173989 Press    =    -341.016831
------------ Step           1700 ----- CPU =    0.2329478 (sec) -------------
TotEng   =     223.029558 KinEng   =      16.551684 Temp     =      45.890472 
PotEng   =     206.477873 E_bond   =      29.197696 E_angle  =     133.592664 
E_dihed  =      32.065195 E_impro  =       0.736213 E_vdwl   =      13.805191 
E_coul   =      23.251870 E_long   =     -26.170955 Press    =     225.213028
------------ Step           1800 ----- CPU =    0.2470139 (sec) -------------
TotEng   =     226.412391 KinEng   =      22.119538 Temp     =      61.327659 
PotEng   =     204.292853 E_bond   =      29.369151 E_angle  =     133.997120 
E_dihed  =      30.858299 E_impro  =       0.683404 E_vdwl   =      12.131490 
E_coul   =      23.432642 E_long   =     -26.179254 Press    =     223.503821
------------ Step           1900 ----- CPU =    0.2610286 (sec) -------------
TotEng   =     228.499317 KinEng   =      26.627200 Temp     =      73.825402 
PotEng   =     201.872117 E_bond   =      29.717451 E_angle  =     134.979367 
E_dihed  =      30.460825 E_impro  =       0.616844 E_vdwl   =       8.908852 
E_coul   =      23.372633 E_long   =     -26.183854 Press    =      56.525440
------------ Step           2000 ----- CPU =    0.2752886 (sec) -------------
TotEng   =     227.539249 KinEng   =      25.736852 Temp     =      71.356865 
PotEng   =     201.802397 E_bond   =      28.353529 E_angle  =     135.951855 
E_dihed  =      32.046791 E_impro  =       0.681582 E_vdwl   =       7.802380 
E_coul   =      23.145594 E_long   =     -26.179335 Press    =      49.732204
------------ Step           2100 ----- CPU =    0.2892602 (sec) -------------
TotEng   =     225.061014 KinEng   =      21.165508 Temp     =      58.682557 
PotEng   =     203.895506 E_bond   =      26.947517 E_angle  =     138.213887 
E_dihed  =      32.571910 E_impro  =       0.610456 E_vdwl   =       8.527883 
E_coul   =      23.199799 E_long   =     -26.175947 Press    =     174.135145
------------ Step           2200 ----- CPU =    0.3032624 (sec) -------------
TotEng   =     223.425165 KinEng   =      22.089335 Temp     =      61.243918 
PotEng   =     201.335830 E_bond   =      26.119573 E_angle  =     136.376165 
E_dihed  =      32.422574 E_impro  =       0.760469 E_vdwl   =       8.601503 
E_coul   =      23.233932 E_long   =     -26.178386 Press    =     166.681476
------------ Step           2300 ----- CPU =    0.3172799 (sec) -------------
TotEng   =     222.775933 KinEng   =      21.079135 Temp     =      58.443084 
PotEng   =     201.696798 E_bond   =      26.077714 E_angle  =     137.980178 
E_dihed  =      33.262537 E_impro  =       0.701187 E_vdwl   =       6.512689 
E_coul   =      23.337076 E_long   =     -26.174583 Press    =      40.358188
------------ Step           2400 ----- CPU =    0.3312445 (sec) -------------
TotEng   =     223.695238 KinEng   =      23.599298 Temp     =      65.430374 
PotEng   =     200.095940 E_bond   =      25.819117 E_angle  =     137.389969 
E_dihed  =      33.283964 E_impro  =       0.884123 E_vdwl   =       5.605662 
E_coul   =      23.278861 E_long   =     -26.165756 Press    =     113.845886
------------ Step           2500 ----- CPU =     0.345573 (sec) -------------
TotEng   =     226.194550 KinEng   =      27.726840 Temp     =      76.874217 
PotEng   =     198.467709 E_bond   =      25.914747 E_angle  =     136.174223 
E_dihed  =      33.099194 E_impro  =       0.881064 E_vdwl   =       5.225273 
E_coul   =      23.327279 E_long   =     -26.154070 Press    =    -274.406809
------------ Step           2600 ----- CPU =    0.3597498 (sec) -------------
TotEng   =     228.589576 KinEng   =      28.553733 Temp     =      79.166825 
PotEng   =     200.035843 E_bond   =      26.495655 E_angle  =     137.646271 
E_dihed  =      32.915471 E_impro  =       0.851729 E_vdwl   =       5.025849 
E_coul   =      23.252063 E_long   =     -26.151195 Press    =    -477.992733
------------ Step           2700 ----- CPU =    0.3739744 (sec) -------------
TotEng   =     230.926463 KinEng   =      27.834307 Temp     =      77.172175 
PotEng   =     203.092156 E_bond   =      27.140595 E_angle  =     135.501498 
E_dihed  =      36.160764 E_impro  =       0.912876 E_vdwl   =       6.380686 
E_coul   =      23.156345 E_long   =     -26.160608 Press    =    -317.717889
------------ Step           2800 ----- CPU =    0.3882667 (sec) -------------
TotEng   =     233.601861 KinEng   =      28.621830 Temp     =      79.355627 
PotEng   =     204.980031 E_bond   =      26.826809 E_angle  =     138.375339 
E_dihed  =      35.937442 E_impro  =       0.741637 E_vdwl   =       6.202585 
E_coul   =      23.062000 E_long   =     -26.165781 Press    =     217.922597
------------ Step           2900 ----- CPU =    0.4025733 (sec) -------------
TotEng   =     237.213536 KinEng   =      33.917021 Temp     =      94.036840 
PotEng   =     203.296515 E_bond   =      25.708543 E_angle  =     141.861644 
E_dihed  =      34.703663 E_impro  =       0.554243 E_vdwl   =       3.393935 
E_coul   =      23.249429 E_long   =     -26.174941 Press    =      54.359019
------------ Step           3000 ----- CPU =    0.4171184 (sec) -------------
TotEng   =     239.671691 KinEng   =      34.206816 Temp     =      94.840313 
PotEng   =     205.464875 E_bond   =      23.305459 E_angle  =     145.548213 
E_dihed  =      38.672968 E_impro  =       0.755856 E_vdwl   =       0.190853 
E_coul   =      23.160208 E_long   =     -26.168682 Press    =      42.602406
------------ Step           3100 ----- CPU =    0.4313415 (sec) -------------
TotEng   =     241.379511 KinEng   =      32.305350 Temp     =      89.568391 
PotEng   =     209.074161 E_bond   =      22.381027 E_angle  =     147.510759 
E_dihed  =      40.650817 E_impro  =       1.214574 E_vdwl   =       0.553536 
E_coul   =      22.923026 E_long   =     -26.159578 Press    =     254.046281
------------ Step           3200 ----- CPU =    0.4455641 (sec) -------------
TotEng   =     243.653435 KinEng   =      38.495822 Temp     =     106.731822 
PotEng   =     205.157614 E_bond   =      23.049692 E_angle  =     148.812720 
E_dihed  =      36.090673 E_impro  =       0.948492 E_vdwl   =      -0.350504 
E_coul   =      22.785554 E_long   =     -26.179014 Press    =     -85.652008
------------ Step           3300 ----- CPU =    0.4597487 (sec) -------------
TotEng   =     244.484768 KinEng   =      42.528793 Temp     =     117.913461 
PotEng   =     201.955975 E_bond   =      24.989253 E_angle  =     150.067992 
E_dihed  =      29.223704 E_impro  =       0.736005 E_vdwl   =       0.113986 
E_coul   =      22.988392 E_long   =     -26.163357 Press    =    -221.594174
------------ Step           3400 ----- CPU =    0.4739876 (sec) -------------
TotEng   =     242.222179 KinEng   =      35.749514 Temp     =      99.117531 
PotEng   =     206.472664 E_bond   =      24.425629 E_angle  =     151.592088 
E_dihed  =      27.981344 E_impro  =       0.616205 E_vdwl   =       5.073303 
E_coul   =      22.941654 E_long   =     -26.157558 Press    =     134.930498
------------ Step           3500 ----- CPU =    0.4883995 (sec) -------------
TotEng   =     240.523374 KinEng   =      33.580958 Temp     =      93.105086 
PotEng   =     206.942417 E_bond   =      24.859443 E_angle  =     149.531966 
E_dihed  =      28.205819 E_impro  =       0.568823 E_vdwl   =       6.970454 
E_coul   =      22.952437 E_long   =     -26.146526 Press    =      96.160706
------------ Step           3600 ----- CPU =    0.5028207 (sec) -------------
TotEng   =     240.726020 KinEng   =      37.661599 Temp     =     104.418893 
PotEng   =     203.064421 E_bond   =      28.060682 E_angle  =     146.605647 
E_dihed  =      26.837028 E_impro  =       0.662851 E_vdwl   =       4.149715 
E_coul   =      22.895379 E_long   =     -26.146881 Press    =    -723.204354
------------ Step           3700 ----- CPU =    0.5173174 (sec) -------------
TotEng   =     241.885465 KinEng   =      39.766315 Temp     =     110.254336 
PotEng   =     202.119150 E_bond   =      29.209823 E_angle  =     141.282430 
E_dihed  =      30.132783 E_impro  =       0.663931 E_vdwl   =       4.086618 
E_coul   =      22.892256 E_long   =     -26.148690 Press    =    -877.703770
------------ Step           3800 ----- CPU =    0.5311898 (sec) -------------
TotEng   =     243.429762 KinEng   =      40.005354 Temp     =     110.917083 
PotEng   =     203.424409 E_bond   =      27.479320 E_angle  =     136.107797 
E_dihed  =      32.685673 E_impro  =       0.814217 E_vdwl   =       9.563434 
E_coul   =      22.925698 E_long   =     -26.151730 Press    =     -36.917323
------------ Step           3900 ----- CPU =    0.5457964 (sec) -------------
TotEng   =     245.696151 KinEng   =      43.616431 Temp     =     120.928998 
PotEng   =     202.079720 E_bond   =      25.885808 E_angle  =     139.025458 
E_dihed  =      31.085262 E_impro  =       0.651297 E_vdwl   =       8.617934 
E_coul   =      22.981361 E_long   =     -26.167401 Press    =     338.600964
------------ Step           4000 ----- CPU =    0.5606906 (sec) -------------
TotEng   =     246.896772 KinEng   =      46.377912 Temp     =     128.585358 
PotEng   =     200.518860 E_bond   =      25.814535 E_angle  =     137.115261 
E_dihed  =      36.172728 E_impro  =       0.492399 E_vdwl   =       4.401622 
E_coul   =      22.710729 E_long   =     -26.188415 Press    =     -23.749785
------------ Step           4100 ----- CPU =    0.5752255 (sec) -------------
TotEng   =     246.400352 KinEng   =      49.196724 Temp     =     136.400674 
PotEng   =     197.203628 E_bond   =      26.855436 E_angle  =     131.997883 
E_dihed  =      38.437588 E_impro  =       0.699373 E_vdwl   =       2.512377 
E_coul   =      22.899303 E_long   =     -26.198331 Press    =    -346.880426
------------ Step           4200 ----- CPU =    0.5897235 (sec) -------------
TotEng   =     243.840284 KinEng   =      47.844119 Temp     =     132.650500 
PotEng   =     195.996165 E_bond   =      24.737495 E_angle  =     130.806439 
E_dihed  =      41.221497 E_impro  =       0.679471 E_vdwl   =       1.834156 
E_coul   =      22.918009 E_long   =     -26.200901 Press    =    -171.476734
------------ Step           4300 ----- CPU =    0.6041513 (sec) -------------
TotEng   =     240.818486 KinEng   =      41.107604 Temp     =     113.973133 
PotEng   =     199.710882 E_bond   =      22.215266 E_angle  =     128.125047 
E_dihed  =      45.145149 E_impro  =       0.452328 E_vdwl   =       7.065550 
E_coul   =      22.905222 E_long   =     -26.197680 Press    =     259.214074
------------ Step           4400 ----- CPU =    0.6184852 (sec) -------------
TotEng   =     239.927990 KinEng   =      42.592346 Temp     =     118.089665 
PotEng   =     197.335644 E_bond   =      21.576030 E_angle  =     132.195571 
E_dihed  =      42.368417 E_impro  =       0.493395 E_vdwl   =       4.247945 
E_coul   =      22.657392 E_long   =     -26.203106 Press    =     586.138218
------------ Step           4500 ----- CPU =    0.6322236 (sec) -------------
TotEng   =     241.503031 KinEng   =      48.914711 Temp     =     135.618776 
PotEng   =     192.588320 E_bond   =      22.217761 E_angle  =     128.503224 
E_dihed  =      39.585501 E_impro  =       0.553697 E_vdwl   =       5.125079 
E_coul   =      22.803182 E_long   =     -26.200124 Press    =     255.198528
------------ Step           4600 ----- CPU =    0.6465753 (sec) -------------
TotEng   =     244.082658 KinEng   =      39.693706 Temp     =     110.053024 
PotEng   =     204.388951 E_bond   =      22.290843 E_angle  =     133.209192 
E_dihed  =      38.639155 E_impro  =       0.478834 E_vdwl   =      13.052967 
E_coul   =      22.920056 E_long   =     -26.202097 Press    =     411.262200
------------ Step           4700 ----- CPU =    0.6602374 (sec) -------------
TotEng   =     249.343995 KinEng   =      48.838471 Temp     =     135.407396 
PotEng   =     200.505524 E_bond   =      21.785535 E_angle  =     135.617822 
E_dihed  =      36.857130 E_impro  =       0.597897 E_vdwl   =       8.881606 
E_coul   =      22.960921 E_long   =     -26.195388 Press    =     364.992483
------------ Step           4800 ----- CPU =    0.6745674 (sec) -------------
TotEng   =     253.570763 KinEng   =      44.688482 Temp     =     123.901319 
PotEng   =     208.882281 E_bond   =      22.149115 E_angle  =     144.374011 
E_dihed  =      41.833530 E_impro  =       0.803621 E_vdwl   =       2.967197 
E_coul   =      22.955015 E_long   =     -26.200209 Press    =     406.970650
------------ Step           4900 ----- CPU =    0.6888818 (sec) -------------
TotEng   =     257.989608 KinEng   =      56.086294 Temp     =     155.502391 
PotEng   =     201.903315 E_bond   =      25.429886 E_angle  =     141.807163 
E_dihed  =      41.743729 E_impro  =       0.952650 E_vdwl   =      -4.979013 
E_coul   =      23.148394 E_long   =     -26.199494 Press    =    -907.332564
------------ Step           5000 ----- CPU =     0.703633 (sec) -------------
TotEng   =     259.938272 KinEng   =      66.750704 Temp     =     185.070064 
PotEng   =     193.187568 E_bond   =      22.529838 E_angle  =     141.081669 
E_dihed  =      38.456316 E_impro  =       0.808150 E_vdwl   =      -6.624317 
E_coul   =      23.139547 E_long   =     -26.203634 Press    =    -775.897697
------------ Step           5100 ----- CPU =    0.7181033 (sec) -------------
TotEng   =     254.413596 KinEng   =      65.823807 Temp     =     182.500190 
PotEng   =     188.589789 E_bond   =      17.801822 E_angle  =     138.819519 
E_dihed  =      36.936507 E_impro  =       0.676154 E_vdwl   =      -2.283898 
E_coul   =      22.847527 E_long   =     -26.207842 Press    =     -61.315634
------------ Step           5200 ----- CPU =    0.7324035 (sec) -------------
TotEng   =     247.268606 KinEng   =      55.918964 Temp     =     155.038460 
PotEng   =     191.349642 E_bond   =      20.790217 E_angle  =     137.433072 
E_dihed  =      38.614005 E_impro  =       0.625923 E_vdwl   =      -2.786514 
E_coul   =      22.875399 E_long   =     -26.202460 Press    =     -27.785830
------------ Step           5300 ----- CPU =     0.746372 (sec) -------------
TotEng   =     243.957224 KinEng   =      56.005853 Temp     =     155.279363 
PotEng   =     187.951371 E_bond   =      21.496074 E_angle  =     139.734412 
E_dihed  =      35.150545 E_impro  =       0.761945 E_vdwl   =      -5.927580 
E_coul   =      22.943843 E_long   =     -26.207867 Press    =      80.052814
------------ Step           5400 ----- CPU =    0.7608953 (sec) -------------
TotEng   =     242.270058 KinEng   =      54.730885 Temp     =     151.744445 
PotEng   =     187.539173 E_bond   =      19.788372 E_angle  =     134.614715 
E_dihed  =      39.514593 E_impro  =       0.880712 E_vdwl   =      -3.776654 
E_coul   =      22.726817 E_long   =     -26.209383 Press    =     145.647994
------------ Step           5500 ----- CPU =    0.7754483 (sec) -------------
TotEng   =     242.800470 KinEng   =      51.653170 Temp     =     143.211306 
PotEng   =     191.147300 E_bond   =      19.051958 E_angle  =     139.303032 
E_dihed  =      42.669986 E_impro  =       0.639642 E_vdwl   =      -6.829460 
E_coul   =      22.518740 E_long   =     -26.206599 Press    =     -59.667864
------------ Step           5600 ----- CPU =    0.7894148 (sec) -------------
TotEng   =     246.646521 KinEng   =      63.470146 Temp     =     175.974534 
PotEng   =     183.176376 E_bond   =      17.994340 E_angle  =     142.016200 
E_dihed  =      34.870113 E_impro  =       0.739831 E_vdwl   =      -8.520770 
E_coul   =      22.284963 E_long   =     -26.208301 Press    =      34.045977
------------ Step           5700 ----- CPU =    0.8040773 (sec) -------------
TotEng   =     250.258231 KinEng   =      61.469594 Temp     =     170.427891 
PotEng   =     188.788637 E_bond   =      21.675700 E_angle  =     149.079620 
E_dihed  =      33.192572 E_impro  =       1.072356 E_vdwl   =     -12.294074 
E_coul   =      22.270655 E_long   =     -26.208191 Press    =    -541.364336
------------ Step           5800 ----- CPU =     0.818729 (sec) -------------
TotEng   =     253.208076 KinEng   =      64.119207 Temp     =     177.774094 
PotEng   =     189.088868 E_bond   =      19.593700 E_angle  =     157.094830 
E_dihed  =      32.417309 E_impro  =       0.727309 E_vdwl   =     -16.845478 
E_coul   =      22.311946 E_long   =     -26.210748 Press    =    -355.266458
------------ Step           5900 ----- CPU =    0.8327104 (sec) -------------
TotEng   =     255.582753 KinEng   =      65.417498 Temp     =     181.373678 
PotEng   =     190.165255 E_bond   =      17.343690 E_angle  =     148.997680 
E_dihed  =      32.969592 E_impro  =       0.595954 E_vdwl   =      -6.002295 
E_coul   =      22.467528 E_long   =     -26.206894 Press    =     687.207118
------------ Step           6000 ----- CPU =    0.8474921 (sec) -------------
TotEng   =     257.679100 KinEng   =      70.052048 Temp     =     194.223226 
PotEng   =     187.627052 E_bond   =      17.722945 E_angle  =     155.349986 
E_dihed  =      35.533283 E_impro  =       0.664365 E_vdwl   =     -18.069009 
E_coul   =      22.631320 E_long   =     -26.205838 Press    =     -62.912027
------------ Step           6100 ----- CPU =    0.8621566 (sec) -------------
TotEng   =     257.138116 KinEng   =      72.592248 Temp     =     201.266072 
PotEng   =     184.545868 E_bond   =      15.358254 E_angle  =     154.863422 
E_dihed  =      39.855192 E_impro  =       0.761964 E_vdwl   =     -22.788697 
E_coul   =      22.694805 E_long   =     -26.199073 Press    =     118.017227
------------ Step           6200 ----- CPU =    0.8773345 (sec) -------------
TotEng   =     250.954385 KinEng   =      62.850351 Temp     =     174.256118 
PotEng   =     188.104034 E_bond   =      14.321970 E_angle  =     167.499939 
E_dihed  =      43.163548 E_impro  =       1.000946 E_vdwl   =     -34.341065 
E_coul   =      22.656460 E_long   =     -26.197763 Press    =    -250.858039
------------ Step           6300 ----- CPU =     0.892014 (sec) -------------
TotEng   =     243.784855 KinEng   =      63.711276 Temp     =     176.643081 
PotEng   =     180.073579 E_bond   =      11.329162 E_angle  =     152.858106 
E_dihed  =      40.120051 E_impro  =       0.874286 E_vdwl   =     -21.592231 
E_coul   =      22.679395 E_long   =     -26.195189 Press    =     966.976747
------------ Step           6400 ----- CPU =    0.9060239 (sec) -------------
TotEng   =     240.029174 KinEng   =      71.690410 Temp     =     198.765676 
PotEng   =     168.338765 E_bond   =      17.862636 E_angle  =     147.209225 
E_dihed  =      36.062783 E_impro  =       0.625529 E_vdwl   =     -30.056904 
E_coul   =      22.822845 E_long   =     -26.187349 Press    =    -684.038800
------------ Step           6500 ----- CPU =    0.9205857 (sec) -------------
TotEng   =     236.373255 KinEng   =      72.303374 Temp     =     200.465154 
PotEng   =     164.069881 E_bond   =      16.234501 E_angle  =     139.379349 
E_dihed  =      34.110043 E_impro  =       0.556392 E_vdwl   =     -22.946697 
E_coul   =      22.916199 E_long   =     -26.179906 Press    =     209.131903
------------ Step           6600 ----- CPU =    0.9350385 (sec) -------------
TotEng   =     234.225036 KinEng   =      61.205035 Temp     =     169.694387 
PotEng   =     173.020001 E_bond   =      13.951690 E_angle  =     146.197567 
E_dihed  =      39.112035 E_impro  =       0.668292 E_vdwl   =     -23.670411 
E_coul   =      22.925882 E_long   =     -26.165052 Press    =     653.406267
------------ Step           6700 ----- CPU =    0.9488957 (sec) -------------
TotEng   =     236.577182 KinEng   =      64.948683 Temp     =     180.073862 
PotEng   =     171.628499 E_bond   =      10.054012 E_angle  =     135.826509 
E_dihed  =      40.226560 E_impro  =       1.526397 E_vdwl   =     -12.849364 
E_coul   =      22.995222 E_long   =     -26.150836 Press    =    1511.665016
------------ Step           6800 ----- CPU =    0.9634806 (sec) -------------
TotEng   =     241.503065 KinEng   =      69.127602 Temp     =     191.660149 
PotEng   =     172.375463 E_bond   =      18.132001 E_angle  =     148.198636 
E_dihed  =      35.332889 E_impro  =       1.546711 E_vdwl   =     -27.578598 
E_coul   =      22.910001 E_long   =     -26.166178 Press    =    -140.473254
------------ Step           6900 ----- CPU =    0.9780518 (sec) -------------
TotEng   =     245.846688 KinEng   =      71.569931 Temp     =     198.431641 
PotEng   =     174.276757 E_bond   =      19.532186 E_angle  =     148.822831 
E_dihed  =      35.436795 E_impro  =       0.893604 E_vdwl   =     -27.395633 
E_coul   =      23.160521 E_long   =     -26.173547 Press    =    -375.179043
------------ Step           7000 ----- CPU =    0.9928938 (sec) -------------
TotEng   =     249.436381 KinEng   =      75.542584 Temp     =     209.446045 
PotEng   =     173.893797 E_bond   =      17.371687 E_angle  =     148.437727 
E_dihed  =      37.297479 E_impro  =       1.695816 E_vdwl   =     -27.861684 
E_coul   =      23.118883 E_long   =     -26.166111 Press    =    -422.136509
------------ Step           7100 ----- CPU =     1.007541 (sec) -------------
TotEng   =     251.344346 KinEng   =      80.622051 Temp     =     223.529152 
PotEng   =     170.722295 E_bond   =      13.658494 E_angle  =     140.268629 
E_dihed  =      37.999125 E_impro  =       2.089895 E_vdwl   =     -20.355608 
E_coul   =      23.199117 E_long   =     -26.137357 Press    =     806.601515
------------ Step           7200 ----- CPU =     1.022075 (sec) -------------
TotEng   =     251.804882 KinEng   =      76.960672 Temp     =     213.377774 
PotEng   =     174.844210 E_bond   =      15.692930 E_angle  =     146.221376 
E_dihed  =      36.595902 E_impro  =       1.166492 E_vdwl   =     -21.847034 
E_coul   =      23.177676 E_long   =     -26.163132 Press    =     831.731130
------------ Step           7300 ----- CPU =     1.036091 (sec) -------------
TotEng   =     252.178840 KinEng   =      70.906088 Temp     =     196.591101 
PotEng   =     181.272752 E_bond   =      20.416239 E_angle  =     150.972863 
E_dihed  =      38.966600 E_impro  =       1.104520 E_vdwl   =     -27.262604 
E_coul   =      23.247783 E_long   =     -26.172649 Press    =    -917.587333
------------ Step           7400 ----- CPU =     1.050818 (sec) -------------
TotEng   =     255.776889 KinEng   =      81.773375 Temp     =     226.721261 
PotEng   =     174.003515 E_bond   =      11.159989 E_angle  =     163.642205 
E_dihed  =      36.714804 E_impro  =       1.808475 E_vdwl   =     -36.694961 
E_coul   =      23.544156 E_long   =     -26.171154 Press    =     359.374680
------------ Step           7500 ----- CPU =     1.065587 (sec) -------------
TotEng   =     262.184515 KinEng   =      73.647093 Temp     =     204.190691 
PotEng   =     188.537421 E_bond   =      19.342881 E_angle  =     165.449895 
E_dihed  =      38.865439 E_impro  =       0.955020 E_vdwl   =     -33.223415 
E_coul   =      23.307932 E_long   =     -26.160331 Press    =    -609.871881
------------ Step           7600 ----- CPU =     1.079672 (sec) -------------
TotEng   =     271.039419 KinEng   =      81.556893 Temp     =     226.121054 
PotEng   =     189.482526 E_bond   =      17.049668 E_angle  =     164.136667 
E_dihed  =      44.927401 E_impro  =       0.632334 E_vdwl   =     -34.469543 
E_coul   =      23.371127 E_long   =     -26.165129 Press    =   -1345.892044
------------ Step           7700 ----- CPU =     1.094576 (sec) -------------
TotEng   =     274.797956 KinEng   =      83.092482 Temp     =     230.378559 
PotEng   =     191.705475 E_bond   =      12.782991 E_angle  =     167.745427 
E_dihed  =      40.833239 E_impro  =       1.042916 E_vdwl   =     -28.029356 
E_coul   =      23.510674 E_long   =     -26.180417 Press    =     701.649712
------------ Step           7800 ----- CPU =     1.109461 (sec) -------------
TotEng   =     276.823082 KinEng   =      82.487879 Temp     =     228.702265 
PotEng   =     194.335202 E_bond   =      21.101571 E_angle  =     165.710571 
E_dihed  =      37.243903 E_impro  =       1.173963 E_vdwl   =     -28.000663 
E_coul   =      23.293923 E_long   =     -26.188065 Press    =   -1130.386457
------------ Step           7900 ----- CPU =     1.124324 (sec) -------------
TotEng   =     279.281767 KinEng   =      89.136124 Temp     =     247.134895 
PotEng   =     190.145644 E_bond   =      12.146188 E_angle  =     155.078904 
E_dihed  =      38.104355 E_impro  =       1.296050 E_vdwl   =     -13.457841 
E_coul   =      23.146398 E_long   =     -26.168410 Press    =    1625.538681
------------ Step           8000 ----- CPU =     1.138823 (sec) -------------
TotEng   =     279.518958 KinEng   =      73.082507 Temp     =     202.625342 
PotEng   =     206.436452 E_bond   =      17.970527 E_angle  =     183.998379 
E_dihed  =      40.428279 E_impro  =       1.100066 E_vdwl   =     -33.904118 
E_coul   =      23.012952 E_long   =     -26.169633 Press    =    -140.998521
------------ Step           8100 ----- CPU =     1.153899 (sec) -------------
TotEng   =     283.163689 KinEng   =      84.585505 Temp     =     234.518049 
PotEng   =     198.578184 E_bond   =      20.149447 E_angle  =     176.292614 
E_dihed  =      36.459655 E_impro  =       0.866555 E_vdwl   =     -32.357283 
E_coul   =      23.310731 E_long   =     -26.143534 Press    =    -981.929650
------------ Step           8200 ----- CPU =     1.169064 (sec) -------------
TotEng   =     290.217421 KinEng   =      99.367544 Temp     =     275.502080 
PotEng   =     190.849877 E_bond   =      15.418092 E_angle  =     168.667709 
E_dihed  =      37.797045 E_impro  =       0.970504 E_vdwl   =     -29.178297 
E_coul   =      23.327645 E_long   =     -26.152820 Press    =    -210.495580
------------ Step           8300 ----- CPU =     1.184337 (sec) -------------
TotEng   =     293.747550 KinEng   =      94.809431 Temp     =     262.864459 
PotEng   =     198.938118 E_bond   =      19.621342 E_angle  =     174.122698 
E_dihed  =      37.503272 E_impro  =       1.192020 E_vdwl   =     -30.798584 
E_coul   =      23.439740 E_long   =     -26.142370 Press    =    -585.554773
------------ Step           8400 ----- CPU =     1.199774 (sec) -------------
TotEng   =     293.838024 KinEng   =     106.727867 Temp     =     295.908990 
PotEng   =     187.110157 E_bond   =      15.066513 E_angle  =     167.397425 
E_dihed  =      32.643579 E_impro  =       1.788144 E_vdwl   =     -26.844263 
E_coul   =      23.210611 E_long   =     -26.151852 Press    =     582.134784
------------ Step           8500 ----- CPU =     1.215301 (sec) -------------
TotEng   =     286.451508 KinEng   =      94.037728 Temp     =     260.724866 
PotEng   =     192.413781 E_bond   =      19.531463 E_angle  =     170.917586 
E_dihed  =      36.368562 E_impro  =       1.451473 E_vdwl   =     -33.081067 
E_coul   =      23.370974 E_long   =     -26.145211 Press    =    -321.664621
------------ Step           8600 ----- CPU =     1.230996 (sec) -------------
TotEng   =     276.910374 KinEng   =      75.897749 Temp     =     210.430761 
PotEng   =     201.012625 E_bond   =      14.954142 E_angle  =     163.265959 
E_dihed  =      42.832689 E_impro  =       0.969747 E_vdwl   =     -18.035521 
E_coul   =      23.171146 E_long   =     -26.145536 Press    =    1114.707685
------------ Step           8700 ----- CPU =      1.24692 (sec) -------------
TotEng   =     275.574162 KinEng   =      94.940326 Temp     =     263.227371 
PotEng   =     180.633836 E_bond   =      14.277534 E_angle  =     158.538528 
E_dihed  =      41.462019 E_impro  =       0.793675 E_vdwl   =     -31.774741 
E_coul   =      23.475499 E_long   =     -26.138678 Press    =     501.991837
------------ Step           8800 ----- CPU =     1.262832 (sec) -------------
TotEng   =     276.949722 KinEng   =      82.749271 Temp     =     229.426989 
PotEng   =     194.200451 E_bond   =      20.359639 E_angle  =     166.978305 
E_dihed  =      40.216750 E_impro  =       1.719089 E_vdwl   =     -32.401290 
E_coul   =      23.471192 E_long   =     -26.143233 Press    =    -289.168169
------------ Step           8900 ----- CPU =     1.278686 (sec) -------------
TotEng   =     280.839754 KinEng   =      92.452136 Temp     =     256.328725 
PotEng   =     188.387618 E_bond   =      20.032824 E_angle  =     166.893048 
E_dihed  =      41.487159 E_impro  =       1.329244 E_vdwl   =     -38.671370 
E_coul   =      23.480111 E_long   =     -26.163399 Press    =    -855.202640
------------ Step           9000 ----- CPU =     1.294853 (sec) -------------
TotEng   =     285.106519 KinEng   =      98.172366 Temp     =     272.188384 
PotEng   =     186.934153 E_bond   =      15.204676 E_angle  =     163.944884 
E_dihed  =      43.514745 E_impro  =       0.876052 E_vdwl   =     -33.315725 
E_coul   =      22.888373 E_long   =     -26.178852 Press    =    1222.312400
------------ Step           9100 ----- CPU =     1.310236 (sec) -------------
TotEng   =     289.023551 KinEng   =     101.004049 Temp     =     280.039382 
PotEng   =     188.019503 E_bond   =      19.061570 E_angle  =     163.389809 
E_dihed  =      41.043876 E_impro  =       1.111888 E_vdwl   =     -33.733851 
E_coul   =      23.304088 E_long   =     -26.157876 Press    =     142.745251
------------ Step           9200 ----- CPU =     1.326452 (sec) -------------
TotEng   =     290.858163 KinEng   =     102.012172 Temp     =     282.834460 
PotEng   =     188.845991 E_bond   =      26.274426 E_angle  =     156.080922 
E_dihed  =      38.223707 E_impro  =       0.582457 E_vdwl   =     -29.391176 
E_coul   =      23.246552 E_long   =     -26.170898 Press    =    -916.970647
------------ Step           9300 ----- CPU =     1.342627 (sec) -------------
TotEng   =     291.005118 KinEng   =     109.543061 Temp     =     303.714271 
PotEng   =     181.462058 E_bond   =      16.177551 E_angle  =     158.741538 
E_dihed  =      37.769438 E_impro  =       1.059101 E_vdwl   =     -29.220454 
E_coul   =      23.101814 E_long   =     -26.166930 Press    =     355.557708
------------ Step           9400 ----- CPU =     1.358879 (sec) -------------
TotEng   =     285.777851 KinEng   =      97.670410 Temp     =     270.796681 
PotEng   =     188.107441 E_bond   =      15.883671 E_angle  =     165.528975 
E_dihed  =      41.580382 E_impro  =       2.076436 E_vdwl   =     -33.441142 
E_coul   =      22.667952 E_long   =     -26.188833 Press    =     759.366875
------------ Step           9500 ----- CPU =     1.375164 (sec) -------------
TotEng   =     276.970300 KinEng   =      97.377980 Temp     =     269.985904 
PotEng   =     179.592319 E_bond   =      18.966939 E_angle  =     154.030588 
E_dihed  =      45.904231 E_impro  =       1.199207 E_vdwl   =     -37.145102 
E_coul   =      22.807581 E_long   =     -26.171125 Press    =    -372.282723
------------ Step           9600 ----- CPU =     1.391367 (sec) -------------
TotEng   =     267.657703 KinEng   =      84.077512 Temp     =     233.109612 
PotEng   =     183.580190 E_bond   =      16.734039 E_angle  =     152.791802 
E_dihed  =      50.561654 E_impro  =       1.827811 E_vdwl   =     -35.050917 
E_coul   =      22.898241 E_long   =     -26.182437 Press    =       6.543518
------------ Step           9700 ----- CPU =      1.40697 (sec) -------------
TotEng   =     266.202379 KinEng   =      82.555493 Temp     =     228.889727 
PotEng   =     183.646886 E_bond   =      20.221568 E_angle  =     155.293780 
E_dihed  =      45.907128 E_impro  =       2.145613 E_vdwl   =     -36.973433 
E_coul   =      23.228460 E_long   =     -26.176230 Press    =    -680.690724
------------ Step           9800 ----- CPU =      1.42334 (sec) -------------
TotEng   =     271.685247 KinEng   =      92.003373 Temp     =     255.084505 
PotEng   =     179.681874 E_bond   =      16.025893 E_angle  =     148.059564 
E_dihed  =      44.582355 E_impro  =       1.491615 E_vdwl   =     -27.648321 
E_coul   =      23.367965 E_long   =     -26.197196 Press    =     914.516072
------------ Step           9900 ----- CPU =     1.439796 (sec) -------------
TotEng   =     279.018423 KinEng   =      97.295336 Temp     =     269.756769 
PotEng   =     181.723086 E_bond   =      18.222846 E_angle  =     160.007913 
E_dihed  =      56.114222 E_impro  =       1.534883 E_vdwl   =     -51.051725 
E_coul   =      23.078155 E_long   =     -26.183207 Press    =    -563.713090
------------ Step          10000 ----- CPU =     1.456482 (sec) -------------
TotEng   =     284.529429 KinEng   =     100.434759 Temp     =     278.460994 
PotEng   =     184.094671 E_bond   =      14.551064 E_angle  =     167.939315 
E_dihed  =      56.232135 E_impro  =       1.117468 E_vdwl   =     -52.811582 
E_coul   =      23.244350 E_long   =     -26.178079 Press    =    -347.949969
Loop time of 1.4565 on 1 procs for 10000 steps with 122 atoms

Performance: 296.602 ns/day, 0.081 hours/ns, 6865.781 timesteps/s, 837.625 katom-step/s
99.7% CPU use with 1 MPI tasks x 1 OpenMP threads

MPI task timing breakdown:
Section |  min time  |  avg time  |  max time  |%varavg| %total
---------------------------------------------------------------
Pair    | 0.64028    | 0.64028    | 0.64028    |   0.0 | 43.96
Bond    | 0.30523    | 0.30523    | 0.30523    |   0.0 | 20.96
Kspace  | 0.39852    | 0.39852    | 0.39852    |   0.0 | 27.36
Neigh   | 0.039634   | 0.039634   | 0.039634   |   0.0 |  2.72
Comm    | 0.042771   | 0.042771   | 0.042771   |   0.0 |  2.94
Output  | 0.0036137  | 0.0036137  | 0.0036137  |   0.0 |  0.25
Modify  | 0.020038   | 0.020038   | 0.020038   |   0.0 |  1.38
Other   |            | 0.006414   |            |       |  0.44

Nlocal:            122 ave         122 max         122 min
Histogram: 1 0 0 0 0 0 0 0 0 0
Nghost:           1006 ave        1006 max        1006 min
Histogram: 1 0 0 0 0 0 0 0 0 0
Neighs:           7760 ave        7760 max        7760 min
Histogram: 1 0 0 0 0 0 0 0 0 0

Total # of neighbors = 7760
Ave neighs/atom = 63.606557
Ave special neighs/atom = 10.967213
Neighbor list builds = 76
Dangerous builds = 0
unfix                4
undump               1

fix                  4 all nvt temp 300 300 100
fix                  freeze oleic_acid setforce 0.0 0.0 0.0
fix                  1 all gcmc 1 0 100 0 1234567 300.0 0 5 mol 69 full_energy mcmoves 0 1 1
dump                 2 all custom 10 ${sname}.simple_mc.lammpstrj id type xu yu zu vx vy vz
dump                 2 all custom 10 simplified_mc.simple_mc.lammpstrj id type xu yu zu vx vy vz
run                  10000
PPPM initialization ...
  using 12-bit tables for long-range coulomb (src/kspace.cpp:342)
  G vector (1/distance) = 0.14809026
  grid = 3 3 3
  stencil order = 5
  estimated absolute RMS force accuracy = 0.031780157
  estimated relative force accuracy = 9.5704998e-05
  using double precision FFTW3
  3d grid and FFT values/proc = 512 27
Generated 28 of 28 mixed pair_coeff terms from geometric mixing rule
0 atoms in group FixGCMC:gcmc_exclusion_group:1
0 atoms in group FixGCMC:rotation_gas_atoms:1
WARNING: Fix gcmc is being applied to the default group all (src/MC/fix_gcmc.cpp:672)
WARNING: Neighbor exclusions used with KSpace solver may give inconsistent Coulombic energies (src/neighbor.cpp:639)
Per MPI rank memory allocation (min/avg/max) = 30.66 | 30.66 | 30.66 Mbytes
------------ Step          10000 ----- CPU =            0 (sec) -------------
TotEng   =     284.529429 KinEng   =     100.434759 Temp     =     278.460994 
PotEng   =     184.094671 E_bond   =      14.551064 E_angle  =     167.939315 
E_dihed  =      56.232135 E_impro  =       1.117468 E_vdwl   =     -52.811582 
E_coul   =      23.244350 E_long   =     -26.178079 Press    =    -347.949969
------------ Step          10100 ----- CPU =      8.64903 (sec) -------------
TotEng   =     275.289074 KinEng   =     107.829262 Temp     =     298.962667 
PotEng   =     167.459812 E_bond   =      13.780472 E_angle  =     160.757220 
E_dihed  =      43.658877 E_impro  =       1.118588 E_vdwl   =     -48.499939 
E_coul   =      22.831561 E_long   =     -26.186967 Press    =     869.886065
