ITEM: TIMESTEP
0
ITEM: NUMBER OF ATOMS
122
ITEM: BOX BOUNDS pp pp pp
0.0000000000000000e+00 2.0000000000000000e+01
0.0000000000000000e+00 2.0000000000000000e+01
0.0000000000000000e+00 2.0000000000000000e+01
ITEM: ATOMS id type xu yu zu vx vy vz
61 6 9.05788 1.97158 9.07681 0 0 0
60 6 9.9881 0.815418 8.15054 0 0 0
58 6 7.09771 0.369159 9.07603 0 0 0
57 6 7.32698 2.04913 7.25253 0 0 0
56 6 8.25721 0.892962 6.32626 0 0 0
54 6 5.36682 0.446703 7.25175 0 0 0
53 6 5.59609 2.12667 5.42825 0 0 0
52 6 6.52631 0.970507 4.50198 0 0 0
50 6 3.70587 0.532268 5.49849 0 0 0
49 6 3.8652 2.20422 3.60397 0 0 0
48 6 4.79542 1.04805 2.6777 0 0 0
46 6 1.97497 0.609813 3.67421 0 0 0
45 6 2.13431 2.28176 1.77969 0 0 0
44 6 3.06453 1.1256 0.853423 0 0 0
42 6 0.244082 0.687357 1.84993 0 0 0
16 1 1.0037 0.582266 1.11377 0 0 0
17 1 2.30491 1.23069 1.58959 0 0 0
18 1 2.73459 0.504722 2.93805 0 0 0
19 1 4.0358 1.15314 3.41387 0 0 0
20 1 4.46549 0.427177 4.76233 0 0 0
21 1 5.7667 1.0756 5.23815 0 0 0
22 1 6.19638 0.349633 6.58661 0 0 0
23 1 7.49759 0.998053 7.06243 0 0 0
24 1 7.85733 0.264068 8.33986 0 0 0
25 1 9.22848 0.920509 8.88671 0 0 0
69 1 9.22824 9.97893 4.28333 0 0 0
122 6 9.3735 9.34094 3.54045 0 0 0
108 5 7.27435 8.94761 7.70805 0 0 0
107 5 8.93956 8.86558 8.19831 0 0 0
70 2 8.72895 8.13452 5.48701 0 0 0
88 4 8.8369 9.2518 5.49086 0 0 0
80 3 8.1184 9.51893 7.85357 0 0 0
15 5 0.497676 1.48909 -0.461542 0 0 0
26 5 9.61862 0.0868158 10.4271 0 0 0
113 5 9.84336 8.92284 15.5814 0 0 0
96 5 7.16862 8.86329 14.3557 0 0 0
95 5 7.90298 8.43973 12.7901 0 0 0
94 5 8.29921 9.23215 10.6794 0 0 0
93 5 6.54432 9.20656 10.1698 0 0 0
92 5 5.7177 9.56469 12.5274 0 0 0
83 4 9.961 9.11211 14.4996 0 0 0
79 3 8.9582 9.97202 13.8477 0 0 0
73 3 7.47805 9.88549 10.3346 0 0 0
74 3 7.65192 9.27623 13.436 0 0 0
59 6 8.02794 -0.787005 8.14976 0 0 0
55 6 6.29704 -0.709461 6.32548 0 0 0
51 6 4.63609 -0.623896 4.57222 0 0 0
47 6 2.9052 -0.546351 2.74794 0 0 0
43 6 1.1743 -0.468807 0.923664 0 0 0
118 5 7.78749 10.9077 6.31351 0 0 0
117 5 9.45269 10.8257 6.80377 0 0 0
98 5 8.73419 11.0928 9.16648 0 0 0
97 5 7.05977 11.2741 8.68335 0 0 0
86 3 8.52127 10.2542 6.54704 0 0 0
75 3 7.89014 10.5215 9.02096 0 0 0
106 5 9.43228 10.4843 12.9351 0 0 0
105 5 8.70714 10.8085 14.4936 0 0 0
71 3 7.05199 10.8714 11.4776 0 0 0
72 3 6.64912 10.1361 12.7841 0 0 0
91 5 6.29915 10.9643 13.4178 0 0 0
90 5 6.24005 11.4255 11.1257 0 0 0
89 5 7.89604 11.4428 11.6231 0 0 0
109 5 14.0183 9.84285 8.16362 0 0 0
100 5 11.3655 9.86914 9.97805 0 0 0
62 7 10.7799 0.719195 10.7609 0 0 0
12 3 -2.82573 0.350785 -2.4107 0 0 0
13 3 -1.6644 0.983164 -2.07692 0 0 0
14 3 -0.991754 0.577874 -0.863134 0 0 0
41 6 -1.2788 1.7162 -2.68022 0 0 0
40 6 -3.28216 0.591253 -3.25559 0 0 0
37 6 -5.34134 0.472481 -7.55044 0 0 0
35 6 -6.26261 0.882794 -9.64636 0 0 0
32 6 -8.41571 0.433369 -8.88336 0 0 0
116 5 11.507 7.75492 14.3655 0 0 0
112 5 11.4135 7.51252 12.0113 0 0 0
111 5 10.1391 8.62107 11.7524 0 0 0
103 5 13.0463 9.25107 12.3451 0 0 0
99 5 12.6722 8.67762 10.0319 0 0 0
85 4 10.9067 8.44123 13.8472 0 0 0
82 3 11.0889 8.46457 12.3552 0 0 0
78 3 12.1631 9.49883 11.9597 0 0 0
76 3 12.3476 9.62967 10.3757 0 0 0
64 6 -2.98142 -1.90637 0.250323 0 0 0
63 6 -0.853377 -0.715524 0.83627 0 0 0
34 6 -6.1356 -0.795023 -10.1452 0 0 0
121 5 11.8636 11.5366 5.62815 0 0 0
120 5 13.4851 12.0586 6.06221 0 0 0
119 5 13.0483 10.3204 5.86774 0 0 0
115 5 12.0191 12.1845 8.02314 0 0 0
114 5 11.5824 10.4463 7.82867 0 0 0
110 5 14.455 11.5811 8.35809 0 0 0
87 3 12.7237 11.2724 6.21162 0 0 0
84 3 12.4426 11.2408 7.69147 0 0 0
81 3 13.5833 10.7784 8.59428 0 0 0
1 1 -7.78593 -0.461852 -8.83924 0 0 0
68 6 -8.40003 -1.70223 -7.10882 0 0 0
67 6 -7.8445 -0.0854532 -6.71206 0 0 0
66 6 -3.8463 -1.01362 -6.46123 0 0 0
65 6 -3.08484 -1.01014 -4.11386 0 0 0
2 1 -6.36371 -0.198145 -9.28394 0 0 0
3 1 -5.51163 -0.479665 -8.12001 0 0 0
4 2 -6.28685 -1.42894 -7.24942 0 0 0
5 3 -5.85915 -1.3786 -5.98667 0 0 0
6 3 -6.7766 -1.63602 -4.91335 0 0 0
7 3 -6.34891 -1.58567 -3.65059 0 0 0
8 3 -4.99737 -1.4668 -3.30534 0 0 0
9 3 -4.55448 -1.46631 -1.91112 0 0 0
10 4 -5.18743 -2.07163 -1.07867 0 0 0
11 3 -3.26847 -0.76804 -1.56677 0 0 0
39 6 -7.01022 -1.83178 -2.83078 0 0 0
38 6 -7.77168 -1.83526 -5.17815 0 0 0
36 6 -4.59933 -0.946483 -8.40248 0 0 0
33 6 -8.23396 -1.18657 -9.4426 0 0 0
31 1 -7.66473 -0.92909 -7.35701 0 0 0
30 3 -4.50761 -1.25973 -5.64142 0 0 0
29 3 -4.07992 -1.20938 -4.37866 0 0 0
28 3 -2.58703 -1.0343 -0.377336 0 0 0
27 3 -1.4257 -0.401921 -0.0435627 0 0 0
104 5 11.8293 10.5502 12.3107 0 0 0
102 5 12.9776 11.6988 10.418 0 0 0
101 5 14.2727 10.4991 10.5708 0 0 0
77 3 13.3022 10.7468 10.0741 0 0 0
ITEM: TIMESTEP
25
ITEM: NUMBER OF ATOMS
122
ITEM: BOX BOUNDS pp pp pp
0.0000000000000000e+00 2.0000000000000000e+01
0.0000000000000000e+00 2.0000000000000000e+01
0.0000000000000000e+00 2.0000000000000000e+01
ITEM: ATOMS id type xu yu zu vx vy vz
61 6 9.00559 1.97379 9.05196 0 0 0
60 6 9.98535 0.757601 8.17462 0 0 0
58 6 7.08983 0.389187 9.07684 0 0 0
57 6 7.30677 2.04976 7.25401 0 0 0
56 6 8.25731 0.878758 6.30394 0 0 0
54 6 5.38525 0.472062 7.27695 0 0 0
53 6 5.5931 2.13031 5.44399 0 0 0
52 6 6.54063 0.958229 4.49425 0 0 0
50 6 3.68453 0.553054 5.48533 0 0 0
49 6 3.86694 2.20187 3.62937 0 0 0
48 6 4.81314 1.03079 2.68264 0 0 0
46 6 1.9578 0.630661 3.66431 0 0 0
45 6 2.14516 2.28981 1.80486 0 0 0
44 6 3.09179 1.11604 0.855731 0 0 0
42 6 0.264374 0.738821 1.85839 0 0 0
16 1 1.02993 0.616695 1.09106 0 0 0
17 1 2.31944 1.23146 1.61504 0 0 0
18 1 2.7381 0.520977 2.91056 0 0 0
19 1 4.03243 1.14243 3.43472 0 0 0
20 1 4.46091 0.442021 4.72818 0 0 0
21 1 5.75468 1.07167 5.24081 0 0 0
22 1 6.16924 0.362491 6.5272 0 0 0
23 1 7.46126 0.992681 7.03885 0 0 0
24 1 7.86279 0.279335 8.31597 0 0 0
25 1 9.13155 0.912736 8.83804 0 0 0
69 1 9.23707 9.8986 4.16848 0 0 0
122 6 9.46783 9.36094 3.40437 0 0 0
108 5 7.27383 8.95588 7.32289 0 0 0
107 5 8.99738 8.91618 7.83497 0 0 0
70 2 8.83587 7.97221 5.14671 0 0 0
88 4 8.84168 9.21472 5.24552 0 0 0
80 3 8.1149 9.57403 7.6598 0 0 0
15 5 0.529086 1.45189 -0.429359 0 0 0
26 5 9.33093 0.0778547 10.388 0 0 0
113 5 10.0341 8.95614 15.6713 0 0 0
96 5 6.94508 9.0843 14.5848 0 0 0
95 5 7.54818 8.26475 13.3729 0 0 0
94 5 8.10741 9.59286 10.6382 0 0 0
93 5 6.47544 9.25804 10.1628 0 0 0
92 5 5.54185 9.59856 12.9966 0 0 0
83 4 9.93503 9.04 14.657 0 0 0
79 3 8.89706 9.96259 14.1765 0 0 0
73 3 7.22375 10.0396 10.3023 0 0 0
74 3 7.51702 9.31637 13.7056 0 0 0
59 6 8.04503 -0.77927 8.13183 0 0 0
55 6 6.33291 -0.696896 6.32851 0 0 0
51 6 4.63047 -0.618031 4.53864 0 0 0
47 6 2.90324 -0.539537 2.71779 0 0 0
43 6 1.21628 -0.43963 0.893875 0 0 0
118 5 7.5647 10.6582 5.71762 0 0 0
117 5 9.10381 10.9441 6.16532 0 0 0
98 5 8.69779 11.0713 9.18409 0 0 0
97 5 7.0345 11.312 8.61967 0 0 0
86 3 8.38667 10.1777 6.24451 0 0 0
75 3 7.7677 10.5631 8.91037 0 0 0
106 5 9.34469 10.6706 13.5367 0 0 0
105 5 8.77872 10.6389 15.0148 0 0 0
71 3 6.74722 10.9347 11.5525 0 0 0
72 3 6.46988 10.1886 12.9108 0 0 0
91 5 6.07552 11.0384 13.464 0 0 0
90 5 5.74712 11.328 11.4305 0 0 0
89 5 7.24179 11.91 11.7565 0 0 0
109 5 14.5148 10.1239 8.15265 0 0 0
100 5 11.5457 10.1266 10.3299 0 0 0
62 7 10.1701 1.11711 10.5819 0 0 0
12 3 -2.81704 0.356418 -2.29953 0 0 0
13 3 -1.60903 0.974174 -1.96939 0 0 0
14 3 -0.935539 0.58672 -0.82476 0 0 0
41 6 -1.26031 1.70825 -2.58364 0 0 0
40 6 -3.30288 0.748427 -3.10028 0 0 0
37 6 -5.3353 0.449909 -7.57866 0 0 0
35 6 -6.24614 0.839897 -9.62692 0 0 0
32 6 -8.05782 0.48828 -8.69728 0 0 0
116 5 11.33 7.58994 14.5996 0 0 0
112 5 11.6662 7.18083 12.5545 0 0 0
111 5 10.3325 7.83452 11.978 0 0 0
103 5 13.2036 8.95991 12.4763 0 0 0
99 5 12.6158 8.71938 10.0186 0 0 0
85 4 10.8624 8.25581 13.9703 0 0 0
82 3 11.2068 8.16259 12.5417 0 0 0
78 3 12.2637 9.29429 12.0675 0 0 0
76 3 12.4891 9.67623 10.5502 0 0 0
64 6 -2.98646 -1.83859 0.179483 0 0 0
63 6 -1.0413 -0.78257 0.783921 0 0 0
34 6 -6.06278 -0.871362 -10.1744 0 0 0
121 5 11.9885 11.7706 5.5088 0 0 0
120 5 13.5823 12.1509 5.61903 0 0 0
119 5 12.9835 10.4106 5.44668 0 0 0
115 5 11.9944 12.162 7.63552 0 0 0
114 5 12.0273 10.4012 7.28102 0 0 0
110 5 14.5012 11.7289 8.60747 0 0 0
87 3 12.8829 11.3888 5.93388 0 0 0
84 3 12.631 11.2723 7.43707 0 0 0
81 3 13.8007 10.9114 8.48212 0 0 0
1 1 -7.66931 -0.496555 -8.80911 0 0 0
68 6 -8.38424 -1.73352 -7.20913 0 0 0
67 6 -7.80549 -0.0901124 -6.75554 0 0 0
66 6 -3.79802 -1.09579 -6.35691 0 0 0
65 6 -3.08222 -1.23177 -4.23576 0 0 0
2 1 -6.30115 -0.212742 -9.34239 0 0 0
3 1 -5.48509 -0.496029 -8.10588 0 0 0
4 2 -6.25883 -1.45045 -7.27914 0 0 0
5 3 -5.86295 -1.43103 -5.947 0 0 0
6 3 -6.74113 -1.67297 -4.87842 0 0 0
7 3 -6.30747 -1.66504 -3.57559 0 0 0
8 3 -4.95197 -1.43158 -3.27628 0 0 0
9 3 -4.50315 -1.40811 -1.97258 0 0 0
10 4 -5.13941 -2.02412 -1.10384 0 0 0
11 3 -3.31384 -0.711823 -1.57543 0 0 0
39 6 -6.98502 -1.81502 -2.82972 0 0 0
38 6 -7.73306 -1.86861 -5.02515 0 0 0
36 6 -4.54504 -0.925754 -8.44101 0 0 0
33 6 -8.22012 -1.18221 -9.45344 0 0 0
31 1 -7.62574 -0.966579 -7.38556 0 0 0
30 3 -4.51615 -1.24582 -5.65148 0 0 0
29 3 -4.08877 -1.29333 -4.36391 0 0 0
28 3 -2.66061 -1.08617 -0.424599 0 0 0
27 3 -1.47302 -0.441109 -0.0596926 0 0 0
104 5 12.1445 10.2126 12.6191 0 0 0
102 5 13.3803 11.8312 10.3639 0 0 0
101 5 14.5724 10.6064 10.262 0 0 0
77 3 13.5274 10.7877 10.0062 0 0 0
ITEM: TIMESTEP
50
ITEM: NUMBER OF ATOMS
122
ITEM: BOX BOUNDS pp pp pp
0.0000000000000000e+00 2.0000000000000000e+01
0.0000000000000000e+00 2.0000000000000000e+01
0.0000000000000000e+00 2.0000000000000000e+01
ITEM: ATOMS id type xu yu zu vx vy vz
61 6 8.95212 1.99266 8.94748 0 0 0
60 6 9.95987 0.691205 8.24005 0 0 0
58 6 7.03879 0.372879 9.02203 0 0 0
57 6 7.28192 2.05423 7.21528 0 0 0
56 6 8.23899 0.883433 6.26594 0 0 0
54 6 5.37577 0.478368 7.25729 0 0 0
53 6 5.57965 2.13155 5.42822 0 0 0
52 6 6.52675 0.960397 4.47517 0 0 0
50 6 3.66702 0.557496 5.46511 0 0 0
49 6 3.87369 2.20968 3.6289 0 0 0
48 6 4.82101 1.03699 2.67988 0 0 0
46 6 1.95611 0.64451 3.64741 0 0 0
45 6 2.16541 2.30356 1.80651 0 0 0
44 6 3.11418 1.12957 0.857236 0 0 0
42 6 0.273849 0.750371 1.85682 0 0 0
16 1 1.04502 0.61721 1.09803 0 0 0
17 1 2.33476 1.24513 1.60988 0 0 0
18 1 2.74227 0.531819 2.90047 0 0 0
19 1 4.03454 1.15118 3.4256 0 0 0
20 1 4.44808 0.442916 4.71337 0 0 0
21 1 5.74082 1.07348 5.22165 0 0 0
22 1 6.1552 0.363711 6.50359 0 0 0
23 1 7.4456 0.997314 7.00429 0 0 0
24 1 7.83277 0.274102 8.28183 0 0 0
25 1 9.08094 0.915361 8.84806 0 0 0
69 1 9.30206 9.85084 3.9514 0 0 0
122 6 9.64491 9.31891 3.20606 0 0 0
108 5 7.20392 8.96306 7.28354 0 0 0
107 5 8.91691 9.06664 7.76427 0 0 0
70 2 8.88999 7.98254 5.04632 0 0 0
88 4 8.84765 9.23888 5.06206 0 0 0
80 3 8.0123 9.65206 7.55018 0 0 0
15 5 0.544708 1.42633 -0.427808 0 0 0
26 5 9.18319 0.204897 10.4812 0 0 0
74 3 7.44598 9.43616 13.8838 0 0 0
96 5 6.89075 9.34397 14.8157 0 0 0
95 5 7.47463 8.3877 13.5677 0 0 0
94 5 8.09042 9.67567 10.7062 0 0 0
93 5 6.46955 9.22287 10.21 0 0 0
92 5 5.47527 9.63712 13.1247 0 0 0
83 4 9.92501 8.99616 14.7434 0 0 0
79 3 8.88093 9.97349 14.3157 0 0 0
62 7 9.90544 1.29802 10.8228 0 0 0
59 6 8.02412 -0.781309 8.08789 0 0 0
55 6 6.32212 -0.695085 6.30621 0 0 0
51 6 4.61336 -0.616238 4.51569 0 0 0
47 6 2.90289 -0.527739 2.69997 0 0 0
43 6 1.22594 -0.440677 0.907473 0 0 0
118 5 7.33731 10.4362 5.5669 0 0 0
117 5 8.92912 11.0306 5.95542 0 0 0
98 5 8.60099 11.0799 9.10404 0 0 0
97 5 6.96906 11.4017 8.54609 0 0 0
86 3 8.27232 10.1703 6.06568 0 0 0
75 3 7.64949 10.6001 8.85336 0 0 0
106 5 9.32305 10.7236 13.6772 0 0 0
105 5 8.73823 10.5035 15.2579 0 0 0
71 3 6.55662 10.8733 11.5727 0 0 0
72 3 6.38306 10.2531 13.0303 0 0 0
91 5 6.02241 11.1223 13.5928 0 0 0
90 5 5.50663 11.0945 11.3636 0 0 0
89 5 6.9914 11.8662 11.7613 0 0 0
73 3 7.16919 10.0517 10.3157 0 0 0
99 5 12.5713 8.78646 9.97667 0 0 0
76 3 12.5259 9.68442 10.5998 0 0 0
12 3 -2.80934 0.407684 -2.26693 0 0 0
13 3 -1.61102 0.995897 -1.90229 0 0 0
14 3 -0.931777 0.571432 -0.77073 0 0 0
41 6 -1.23218 1.75431 -2.47083 0 0 0
40 6 -3.30612 0.804575 -3.06271 0 0 0
37 6 -5.30762 0.422934 -7.57679 0 0 0
35 6 -6.12584 0.79488 -9.68931 0 0 0
32 6 -8.11247 0.558079 -8.80603 0 0 0
116 5 11.2512 7.47874 14.7176 0 0 0
112 5 11.8935 7.14401 12.7284 0 0 0
111 5 10.4472 7.75232 12.0742 0 0 0
103 5 13.3193 8.67413 12.4279 0 0 0
113 5 10.046 8.91134 15.7611 0 0 0
85 4 10.8549 8.17866 14.0723 0 0 0
82 3 11.3185 8.07132 12.6589 0 0 0
78 3 12.3882 9.16149 12.1319 0 0 0
64 6 -3.02557 -1.84802 0.159323 0 0 0
63 6 -1.06221 -0.8237 0.828174 0 0 0
34 6 -6.03788 -0.941228 -10.1529 0 0 0
121 5 12.1015 11.9296 5.41122 0 0 0
120 5 13.7977 12.1401 5.44698 0 0 0
119 5 13.0683 10.5072 5.2486 0 0 0
115 5 12.0849 12.0909 7.54536 0 0 0
114 5 12.1245 10.364 7.19425 0 0 0
110 5 14.4127 11.9458 8.56742 0 0 0
87 3 13.0063 11.4619 5.78218 0 0 0
84 3 12.7399 11.2456 7.30773 0 0 0
81 3 13.8614 11.0099 8.44194 0 0 0
109 5 14.644 10.3027 8.11566 0 0 0
77 3 13.6035 10.7372 9.98885 0 0 0
1 1 -7.67657 -0.42666 -8.85647 0 0 0
68 6 -8.33784 -1.74504 -7.28664 0 0 0
67 6 -7.77165 -0.124882 -6.75926 0 0 0
66 6 -3.75692 -1.231 -6.34943 0 0 0
65 6 -3.03755 -1.30099 -4.19174 0 0 0
2 1 -6.2657 -0.233979 -9.35676 0 0 0
3 1 -5.44677 -0.517657 -8.11249 0 0 0
4 2 -6.22815 -1.47166 -7.29638 0 0 0
5 3 -5.82692 -1.48513 -5.94555 0 0 0
6 3 -6.70811 -1.71432 -4.87848 0 0 0
7 3 -6.26755 -1.68563 -3.56147 0 0 0
8 3 -4.93015 -1.44454 -3.27344 0 0 0
9 3 -4.48239 -1.37077 -1.9543 0 0 0
10 4 -5.14602 -1.97435 -1.08122 0 0 0
11 3 -3.3274 -0.684326 -1.56389 0 0 0
39 6 -6.9464 -1.82278 -2.81196 0 0 0
38 6 -7.69854 -1.90689 -5.02294 0 0 0
36 6 -4.49232 -0.930888 -8.43589 0 0 0
33 6 -8.22815 -1.1098 -9.50182 0 0 0
31 1 -7.59314 -0.96139 -7.43728 0 0 0
30 3 -4.47767 -1.33655 -5.64165 0 0 0
29 3 -4.04201 -1.34723 -4.33855 0 0 0
28 3 -2.66917 -1.07955 -0.407631 0 0 0
27 3 -1.48903 -0.466604 -0.0182322 0 0 0
104 5 12.3131 10.018 12.797 0 0 0
102 5 13.4704 11.7397 10.4245 0 0 0
101 5 14.637 10.4835 10.2424 0 0 0
100 5 11.601 10.2265 10.4441 0 0 0
ITEM: TIMESTEP
75
ITEM: NUMBER OF ATOMS
122
ITEM: BOX BOUNDS pp pp pp
0.0000000000000000e+00 2.0000000000000000e+01
0.0000000000000000e+00 2.0000000000000000e+01
0.0000000000000000e+00 2.0000000000000000e+01
ITEM: ATOMS id type xu yu zu vx vy vz
61 6 8.94474 1.99839 8.92914 0 0 0
60 6 9.95712 0.669151 8.28812 0 0 0
58 6 7.02253 0.361993 9.00685 0 0 0
57 6 7.27718 2.05318 7.20444 0 0 0
56 6 8.23587 0.881588 6.25835 0 0 0
54 6 5.37064 0.478409 7.24647 0 0 0
53 6 5.57482 2.13247 5.42034 0 0 0
52 6 6.5216 0.962026 4.46564 0 0 0
50 6 3.66235 0.559529 5.45761 0 0 0
49 6 3.87441 2.21403 3.62465 0 0 0
48 6 4.82206 1.04127 2.6751 0 0 0
46 6 1.95774 0.649182 3.64334 0 0 0
45 6 2.16756 2.30712 1.80243 0 0 0
44 6 3.11626 1.13223 0.853441 0 0 0
42 6 0.277784 0.752315 1.86163 0 0 0
16 1 1.04787 0.616092 1.10243 0 0 0
17 1 2.33757 1.2485 1.60691 0 0 0
18 1 2.74403 0.535827 2.89667 0 0 0
19 1 4.03524 1.15573 3.42032 0 0 0
20 1 4.4443 0.444347 4.70676 0 0 0
21 1 5.73701 1.0746 5.21356 0 0 0
22 1 6.15168 0.363603 6.49443 0 0 0
23 1 7.44291 0.995774 6.99727 0 0 0
24 1 7.82799 0.272979 8.27812 0 0 0
25 1 9.06683 0.917396 8.86952 0 0 0
69 1 9.32122 9.85062 3.93049 0 0 0
122 6 9.6837 9.30879 3.19889 0 0 0
108 5 7.18712 8.96501 7.27449 0 0 0
107 5 8.90279 9.09505 7.74496 0 0 0
70 2 8.89141 7.99625 5.03253 0 0 0
88 4 8.844 9.2521 5.04054 0 0 0
80 3 7.99014 9.66407 7.52981 0 0 0
15 5 0.546975 1.42123 -0.423802 0 0 0
26 5 9.1336 0.253078 10.5291 0 0 0
74 3 7.44337 9.46018 13.9077 0 0 0
96 5 6.88933 9.39985 14.8446 0 0 0
95 5 7.4608 8.40848 13.6047 0 0 0
94 5 8.10001 9.68568 10.7114 0 0 0
93 5 6.4938 9.18546 10.2248 0 0 0
92 5 5.47411 9.64978 13.1445 0 0 0
83 4 9.92316 8.99208 14.7601 0 0 0
79 3 8.88724 9.98144 14.3311 0 0 0
62 7 9.83763 1.34907 10.906 0 0 0
59 6 8.02541 -0.780465 8.0794 0 0 0
55 6 6.31651 -0.695235 6.29535 0 0 0
51 6 4.60804 -0.614828 4.50765 0 0 0
47 6 2.90502 -0.523647 2.69633 0 0 0
43 6 1.22893 -0.442528 0.915863 0 0 0
118 5 7.29721 10.4153 5.54117 0 0 0
117 5 8.88113 11.0563 5.92184 0 0 0
98 5 8.57194 11.088 9.08272 0 0 0
97 5 6.93142 11.3895 8.53573 0 0 0
86 3 8.24236 10.1792 6.03802 0 0 0
75 3 7.6232 10.5967 8.84272 0 0 0
106 5 9.33368 10.7269 13.6866 0 0 0
105 5 8.74862 10.5107 15.2754 0 0 0
71 3 6.53687 10.8516 11.5691 0 0 0
72 3 6.38155 10.2637 13.0412 0 0 0
91 5 6.02949 11.144 13.5926 0 0 0
90 5 5.47922 11.0343 11.357 0 0 0
89 5 6.95096 11.8541 11.749 0 0 0
73 3 7.16897 10.0372 10.3159 0 0 0
99 5 12.5564 8.7917 9.97066 0 0 0
76 3 12.5241 9.68168 10.6052 0 0 0
12 3 -2.81066 0.412831 -2.2557 0 0 0
13 3 -1.61428 1.00418 -1.88262 0 0 0
14 3 -0.934304 0.570695 -0.755861 0 0 0
41 6 -1.23651 1.76908 -2.44193 0 0 0
40 6 -3.30444 0.810085 -3.05357 0 0 0
37 6 -5.29795 0.415962 -7.57654 0 0 0
35 6 -6.09299 0.779359 -9.71321 0 0 0
32 6 -8.11696 0.573907 -8.83396 0 0 0
116 5 11.2485 7.47377 14.7367 0 0 0
112 5 11.9074 7.14315 12.7547 0 0 0
111 5 10.4594 7.74542 12.093 0 0 0
103 5 13.3293 8.61781 12.4005 0 0 0
113 5 10.0336 8.89164 15.7787 0 0 0
85 4 10.858 8.17725 14.0909 0 0 0
82 3 11.3284 8.06767 12.6785 0 0 0
78 3 12.4065 9.14131 12.1375 0 0 0
64 6 -3.03163 -1.8474 0.165356 0 0 0
63 6 -1.06196 -0.831434 0.838162 0 0 0
34 6 -6.03203 -0.96397 -10.1476 0 0 0
121 5 12.1304 11.9488 5.39588 0 0 0
120 5 13.8348 12.1441 5.44271 0 0 0
119 5 13.094 10.5227 5.2303 0 0 0
115 5 12.0901 12.082 7.53507 0 0 0
114 5 12.1389 10.3593 7.17821 0 0 0
110 5 14.3832 11.9736 8.58001 0 0 0
87 3 13.0319 11.4734 5.77064 0 0 0
84 3 12.7511 11.2441 7.29526 0 0 0
81 3 13.8614 11.0218 8.44308 0 0 0
109 5 14.6615 10.3343 8.1205 0 0 0
77 3 13.6081 10.7242 9.98751 0 0 0
1 1 -7.67356 -0.41137 -8.87223 0 0 0
68 6 -8.33217 -1.74007 -7.30888 0 0 0
67 6 -7.76569 -0.126125 -6.76765 0 0 0
66 6 -3.74135 -1.28108 -6.35231 0 0 0
65 6 -3.02667 -1.31448 -4.18375 0 0 0
2 1 -6.25376 -0.240773 -9.36399 0 0 0
3 1 -5.43671 -0.522723 -8.11568 0 0 0
4 2 -6.22221 -1.4755 -7.30442 0 0 0
5 3 -5.81484 -1.50044 -5.95226 0 0 0
6 3 -6.69636 -1.72447 -4.88595 0 0 0
7 3 -6.25875 -1.69172 -3.5666 0 0 0
8 3 -4.92208 -1.44745 -3.27471 0 0 0
9 3 -4.48489 -1.36445 -1.94917 0 0 0
10 4 -5.15424 -1.95298 -1.07681 0 0 0
11 3 -3.32701 -0.677921 -1.55614 0 0 0
39 6 -6.93964 -1.8262 -2.81933 0 0 0
38 6 -7.68638 -1.91571 -5.03345 0 0 0
36 6 -4.48068 -0.93652 -8.43382 0 0 0
33 6 -8.22576 -1.09268 -9.51913 0 0 0
31 1 -7.58668 -0.956239 -7.45295 0 0 0
30 3 -4.4639 -1.36679 -5.64387 0 0 0
29 3 -4.03122 -1.3619 -4.33587 0 0 0
28 3 -2.67328 -1.07819 -0.39841 0 0 0
27 3 -1.49019 -0.469205 -0.00608048 0 0 0
104 5 12.3659 9.98554 12.8243 0 0 0
102 5 13.4873 11.7223 10.4341 0 0 0
101 5 14.6402 10.4527 10.2291 0 0 0
100 5 11.6024 10.2348 10.4589 0 0 0
ITEM: TIMESTEP
100
ITEM: NUMBER OF ATOMS
122
ITEM: BOX BOUNDS pp pp pp
0.0000000000000000e+00 2.0000000000000000e+01
0.0000000000000000e+00 2.0000000000000000e+01
0.0000000000000000e+00 2.0000000000000000e+01
ITEM: ATOMS id type xu yu zu vx vy vz
61 6 8.92865 2.00849 8.92551 0 0 0
60 6 9.95063 0.634615 8.42245 0 0 0
58 6 6.99142 0.332109 8.98986 0 0 0
57 6 7.27908 2.04736 7.1951 0 0 0
56 6 8.24186 0.870878 6.26172 0 0 0
54 6 5.36702 0.475418 7.22628 0 0 0
53 6 5.57513 2.13564 5.40748 0 0 0
52 6 6.52015 0.966637 4.44912 0 0 0
50 6 3.66002 0.568092 5.44117 0 0 0
49 6 3.87712 2.22566 3.61292 0 0 0
48 6 4.82494 1.05348 2.66133 0 0 0
46 6 1.96362 0.659578 3.63598 0 0 0
45 6 2.16988 2.31361 1.79119 0 0 0
44 6 3.11423 1.13436 0.842212 0 0 0
42 6 0.282575 0.754128 1.875 0 0 0
16 1 1.04781 0.615061 1.11155 0 0 0
17 1 2.33955 1.25412 1.59952 0 0 0
18 1 2.74881 0.545271 2.88843 0 0 0
19 1 4.039 1.16767 3.40758 0 0 0
20 1 4.44373 0.45182 4.69209 0 0 0
21 1 5.73822 1.07776 5.19982 0 0 0
22 1 6.15371 0.362971 6.47977 0 0 0
23 1 7.44586 0.988172 6.99685 0 0 0
24 1 7.82201 0.268587 8.28809 0 0 0
25 1 9.03385 0.925477 8.93685 0 0 0
69 1 9.38198 9.8693 3.93061 0 0 0
122 6 9.7651 9.32375 3.22497 0 0 0
108 5 7.15408 8.96194 7.26122 0 0 0
107 5 8.87707 9.126 7.70827 0 0 0
70 2 8.84984 8.02108 4.9929 0 0 0
88 4 8.83162 9.27941 5.0179 0 0 0
80 3 7.95194 9.67361 7.49794 0 0 0
15 5 0.540111 1.41786 -0.41167 0 0 0
26 5 9.02658 0.36101 10.6406 0 0 0
74 3 7.45322 9.50068 13.9324 0 0 0
96 5 6.90175 9.48773 14.8749 0 0 0
95 5 7.45294 8.44399 13.6523 0 0 0
94 5 8.13764 9.72064 10.7093 0 0 0
93 5 6.57297 9.10228 10.2572 0 0 0
92 5 5.48378 9.67111 13.1689 0 0 0
83 4 9.9261 9.00035 14.7823 0 0 0
79 3 8.90907 10.0057 14.3365 0 0 0
62 7 9.73389 1.43731 11.0328 0 0 0
59 6 8.04224 -0.778845 8.08267 0 0 0
55 6 6.31491 -0.69534 6.2755 0 0 0
51 6 4.60279 -0.607504 4.48985 0 0 0
47 6 2.91075 -0.514191 2.68916 0 0 0
43 6 1.22885 -0.444292 0.928742 0 0 0
118 5 7.22987 10.3843 5.50254 0 0 0
117 5 8.79143 11.0972 5.87563 0 0 0
98 5 8.50801 11.1133 9.03984 0 0 0
97 5 6.84195 11.3357 8.51727 0 0 0
86 3 8.18443 10.1956 6.00541 0 0 0
75 3 7.57557 10.58 8.82219 0 0 0
106 5 9.36616 10.7261 13.6674 0 0 0
105 5 8.78603 10.5601 15.2687 0 0 0
71 3 6.51562 10.8124 11.5562 0 0 0
72 3 6.39432 10.2814 13.0466 0 0 0
91 5 6.05468 11.1816 13.576 0 0 0
90 5 5.44696 10.9275 11.349 0 0 0
89 5 6.88868 11.8319 11.7186 0 0 0
73 3 7.18259 10.0062 10.3158 0 0 0
99 5 12.5219 8.79637 9.96253 0 0 0
76 3 12.5099 9.67041 10.6124 0 0 0
12 3 -2.81502 0.418379 -2.24001 0 0 0
13 3 -1.62851 1.01561 -1.8513 0 0 0
14 3 -0.945811 0.572147 -0.730908 0 0 0
41 6 -1.25326 1.79381 -2.39521 0 0 0
40 6 -3.305 0.811926 -3.04257 0 0 0
37 6 -5.28017 0.40249 -7.58565 0 0 0
35 6 -6.03714 0.746905 -9.76285 0 0 0
32 6 -8.11189 0.59702 -8.87796 0 0 0
116 5 11.2516 7.48209 14.77 0 0 0
112 5 11.9113 7.13796 12.7936 0 0 0
111 5 10.4671 7.7305 12.1205 0 0 0
103 5 13.3282 8.51277 12.338 0 0 0
113 5 10.0188 8.88473 15.8011 0 0 0
85 4 10.8639 8.18321 14.1192 0 0 0
82 3 11.3335 8.0621 12.7052 0 0 0
78 3 12.4288 9.10117 12.1395 0 0 0
64 6 -3.04984 -1.84368 0.178359 0 0 0
63 6 -1.06867 -0.840112 0.855586 0 0 0
34 6 -6.02043 -1.00737 -10.145 0 0 0
121 5 12.1708 11.9633 5.38243 0 0 0
120 5 13.8789 12.1686 5.4629 0 0 0
119 5 13.1541 10.5487 5.22048 0 0 0
115 5 12.0848 12.0639 7.53081 0 0 0
114 5 12.1582 10.3489 7.15944 0 0 0
110 5 14.3322 12.0074 8.61561 0 0 0
87 3 13.0708 11.492 5.77075 0 0 0
84 3 12.7607 11.2399 7.28924 0 0 0
81 3 13.854 11.037 8.45573 0 0 0
109 5 14.6807 10.3785 8.1427 0 0 0
77 3 13.6062 10.702 9.99233 0 0 0
1 1 -7.663 -0.388928 -8.90281 0 0 0
68 6 -8.32505 -1.72394 -7.34632 0 0 0
67 6 -7.74718 -0.120757 -6.79142 0 0 0
66 6 -3.7156 -1.37378 -6.36405 0 0 0
65 6 -3.01099 -1.34236 -4.17789 0 0 0
2 1 -6.23055 -0.259199 -9.38441 0 0 0
3 1 -5.41774 -0.53429 -8.12885 0 0 0
4 2 -6.21104 -1.48414 -7.32551 0 0 0
5 3 -5.79446 -1.52762 -5.97209 0 0 0
6 3 -6.67818 -1.73962 -4.90551 0 0 0
7 3 -6.2451 -1.70162 -3.58404 0 0 0
8 3 -4.91105 -1.45515 -3.28666 0 0 0
9 3 -4.49099 -1.3534 -1.95192 0 0 0
10 4 -5.18025 -1.91747 -1.0719 0 0 0
11 3 -3.32966 -0.671925 -1.54529 0 0 0
39 6 -6.93244 -1.83094 -2.84172 0 0 0
38 6 -7.66815 -1.92545 -5.0599 0 0 0
36 6 -4.45861 -0.949601 -8.43656 0 0 0
33 6 -8.22117 -1.06619 -9.55105 0 0 0
31 1 -7.57269 -0.946017 -7.48357 0 0 0
30 3 -4.44135 -1.42245 -5.65182 0 0 0
29 3 -4.01437 -1.39127 -4.3402 0 0 0
28 3 -2.68578 -1.07547 -0.381943 0 0 0
27 3 -1.50047 -0.47249 0.014137 0 0 0
104 5 12.4627 9.92076 12.8594 0 0 0
102 5 13.5056 11.6944 10.4542 0 0 0
101 5 14.6366 10.4042 10.2127 0 0 0
100 5 11.5957 10.2424 10.4836 0 0 0
ITEM: TIMESTEP
125
ITEM: NUMBER OF ATOMS
122
ITEM: BOX BOUNDS pp pp pp
0.0000000000000000e+00 2.0000000000000000e+01
0.0000000000000000e+00 2.0000000000000000e+01
0.0000000000000000e+00 2.0000000000000000e+01
ITEM: ATOMS id type xu yu zu vx vy vz
61 6 8.91338 2.01689 8.93881 0 0 0
60 6 9.94465 0.629683 8.49526 0 0 0
58 6 6.97633 0.315118 8.99256 0 0 0
57 6 7.28588 2.04195 7.20053 0 0 0
56 6 8.25329 0.862046 6.27767 0 0 0
54 6 5.37065 0.470703 7.21962 0 0 0
53 6 5.58573 2.13755 5.40588 0 0 0
52 6 6.52922 0.968971 4.44603 0 0 0
50 6 3.66708 0.575004 5.43475 0 0 0
49 6 3.88175 2.23263 3.60704 0 0 0
48 6 4.82878 1.06108 2.65381 0 0 0
46 6 1.96951 0.665248 3.63422 0 0 0
45 6 2.16973 2.31598 1.78501 0 0 0
44 6 3.10914 1.13349 0.8354 0 0 0
42 6 0.282042 0.753213 1.88355 0 0 0
16 1 1.04336 0.615614 1.11594 0 0 0
17 1 2.33802 1.25579 1.59601 0 0 0
18 1 2.75317 0.550797 2.88512 0 0 0
19 1 4.04423 1.17467 3.40162 0 0 0
20 1 4.45099 0.45846 4.68595 0 0 0
21 1 5.74735 1.07999 5.19697 0 0 0
22 1 6.16125 0.361422 6.47695 0 0 0
23 1 7.45211 0.982035 7.00707 0 0 0
24 1 7.81979 0.265127 8.30482 0 0 0
25 1 9.01421 0.932836 8.97817 0 0 0
69 1 9.4373 9.8904 3.97172 0 0 0
122 6 9.83087 9.34581 3.25626 0 0 0
108 5 7.13735 8.95668 7.2581 0 0 0
107 5 8.86484 9.12583 7.68768 0 0 0
70 2 8.78377 8.03533 4.95016 0 0 0
88 4 8.82173 9.28956 5.01171 0 0 0
80 3 7.93533 9.66992 7.48741 0 0 0
15 5 0.527295 1.42183 -0.402645 0 0 0
26 5 8.97197 0.40694 10.6959 0 0 0
74 3 7.46697 9.5182 13.9336 0 0 0
96 5 6.91807 9.51637 14.8775 0 0 0
95 5 7.46466 8.45953 13.6604 0 0 0
94 5 8.16367 9.75057 10.7024 0 0 0
93 5 6.62355 9.0649 10.2741 0 0 0
92 5 5.49701 9.67677 13.1736 0 0 0
83 4 9.93516 9.01736 14.7843 0 0 0
79 3 8.92562 10.0247 14.3271 0 0 0
62 7 9.71396 1.47923 11.0778 0 0 0
59 6 8.05514 -0.77925 8.09912 0 0 0
55 6 6.32261 -0.696308 6.26941 0 0 0
51 6 4.60739 -0.601047 4.48251 0 0 0
47 6 2.91527 -0.508778 2.68672 0 0 0
43 6 1.22343 -0.443537 0.930783 0 0 0
118 5 7.19455 10.3619 5.49071 0 0 0
117 5 8.74477 11.1114 5.85705 0 0 0
98 5 8.47898 11.1268 9.01789 0 0 0
97 5 6.8006 11.3045 8.50803 0 0 0
86 3 8.15563 10.196 5.98868 0 0 0
75 3 7.55649 10.5711 8.81344 0 0 0
106 5 9.38586 10.7309 13.6448 0 0 0
105 5 8.80871 10.5959 15.2504 0 0 0
71 3 6.51039 10.7968 11.5478 0 0 0
72 3 6.40223 10.2862 13.0456 0 0 0
91 5 6.06793 11.193 13.5644 0 0 0
90 5 5.43735 10.883 11.3453 0 0 0
89 5 6.86404 11.8258 11.7029 0 0 0
73 3 7.19514 9.99565 10.3129 0 0 0
99 5 12.5037 8.793 9.95878 0 0 0
76 3 12.5033 9.66553 10.6167 0 0 0
12 3 -2.81739 0.419808 -2.24181 0 0 0
13 3 -1.63886 1.01778 -1.84444 0 0 0
14 3 -0.956063 0.575191 -0.722369 0 0 0
41 6 -1.26332 1.79983 -2.38391 0 0 0
40 6 -3.30698 0.807437 -3.04526 0 0 0
37 6 -5.27211 0.394901 -7.59714 0 0 0
35 6 -6.01764 0.729736 -9.78627 0 0 0
32 6 -8.10465 0.603942 -8.89491 0 0 0
116 5 11.2493 7.48831 14.783 0 0 0
112 5 11.9046 7.12923 12.807 0 0 0
111 5 10.4648 7.71957 12.1283 0 0 0
103 5 13.3215 8.46011 12.3062 0 0 0
113 5 10.0278 8.90947 15.8059 0 0 0
85 4 10.8655 8.18773 14.1272 0 0 0
82 3 11.3295 8.05365 12.7133 0 0 0
78 3 12.4338 9.077 12.1378 0 0 0
64 6 -3.06345 -1.84213 0.181392 0 0 0
63 6 -1.08062 -0.837449 0.86359 0 0 0
34 6 -6.01658 -1.02787 -10.1509 0 0 0
121 5 12.1754 11.9569 5.3854 0 0 0
120 5 13.8799 12.1932 5.48349 0 0 0
119 5 13.1871 10.5621 5.22535 0 0 0
115 5 12.0761 12.0548 7.5371 0 0 0
114 5 12.1626 10.3435 7.15732 0 0 0
110 5 14.3141 12.0151 8.63595 0 0 0
87 3 13.0807 11.5006 5.7799 0 0 0
84 3 12.7598 11.2372 7.29495 0 0 0
81 3 13.8478 11.039 8.4676 0 0 0
109 5 14.6828 10.3904 8.15752 0 0 0
77 3 13.6004 10.693 10 0 0 0
1 1 -7.65688 -0.385445 -8.91745 0 0 0
68 6 -8.32228 -1.71534 -7.35901 0 0 0
67 6 -7.73408 -0.116004 -6.80493 0 0 0
66 6 -3.70794 -1.40559 -6.37229 0 0 0
65 6 -3.0068 -1.3569 -4.18016 0 0 0
2 1 -6.22151 -0.268009 -9.39753 0 0 0
3 1 -5.40907 -0.541658 -8.13983 0 0 0
4 2 -6.20614 -1.48977 -7.33691 0 0 0
5 3 -5.78834 -1.5373 -5.9848 0 0 0
6 3 -6.67451 -1.74364 -4.91736 0 0 0
7 3 -6.24422 -1.704 -3.59875 0 0 0
8 3 -4.91245 -1.46087 -3.28425 0 0 0
9 3 -4.48968 -1.34875 -1.96346 0 0 0
10 4 -5.19433 -1.90962 -1.07627 0 0 0
11 3 -3.34335 -0.679315 -1.54463 0 0 0
39 6 -6.93323 -1.82985 -2.85504 0 0 0
38 6 -7.66443 -1.92533 -5.07443 0 0 0
36 6 -4.44951 -0.958433 -8.44379 0 0 0
33 6 -8.22003 -1.05892 -9.5633 0 0 0
31 1 -7.56549 -0.942043 -7.49709 0 0 0
30 3 -4.43432 -1.44266 -5.66007 0 0 0
29 3 -4.00836 -1.40378 -4.35099 0 0 0
28 3 -2.69477 -1.07279 -0.380107 0 0 0
27 3 -1.51315 -0.471949 0.0213879 0 0 0
104 5 12.5033 9.88453 12.8712 0 0 0
102 5 13.5012 11.6831 10.4662 0 0 0
101 5 14.6305 10.3916 10.2161 0 0 0
100 5 11.5896 10.2417 10.4964 0 0 0
ITEM: TIMESTEP
150
ITEM: NUMBER OF ATOMS
122
ITEM: BOX BOUNDS pp pp pp
0.0000000000000000e+00 2.0000000000000000e+01
0.0000000000000000e+00 2.0000000000000000e+01
0.0000000000000000e+00 2.0000000000000000e+01
ITEM: ATOMS id type xu yu zu vx vy vz
61 6 8.88713 2.03135 8.96594 0 0 0
60 6 9.93151 0.63515 8.59441 0 0 0
58 6 6.95607 0.295404 9.00516 0 0 0
57 6 7.29583 2.03353 7.21424 0 0 0
56 6 8.27324 0.848864 6.3102 0 0 0
54 6 5.37854 0.459863 7.21264 0 0 0
53 6 5.60878 2.13958 5.40749 0 0 0
52 6 6.54981 0.970737 4.4463 0 0 0
50 6 3.68385 0.585293 5.42772 0 0 0
49 6 3.89282 2.24254 3.60004 0 0 0
48 6 4.83765 1.07192 2.64385 0 0 0
46 6 1.98169 0.673474 3.6347 0 0 0
45 6 2.16927 2.31872 1.77809 0 0 0
44 6 3.09984 1.13162 0.826479 0 0 0
42 6 0.280422 0.750185 1.89888 0 0 0
16 1 1.0347 0.617367 1.12356 0 0 0
17 1 2.33486 1.25745 1.59277 0 0 0
18 1 2.76201 0.558969 2.88219 0 0 0
19 1 4.05561 1.18459 3.39446 0 0 0
20 1 4.46755 0.468512 4.67877 0 0 0
21 1 5.76695 1.08192 5.19623 0 0 0
22 1 6.17612 0.356955 6.4767 0 0 0
23 1 7.46237 0.97254 7.02834 0 0 0
24 1 7.81552 0.261988 8.33655 0 0 0
25 1 8.9857 0.948885 9.03827 0 0 0
69 1 9.55963 9.9077 4.06774 0 0 0
122 6 9.96616 9.37699 3.34902 0 0 0
108 5 7.11155 8.94724 7.25442 0 0 0
107 5 8.84522 9.1202 7.64842 0 0 0
70 2 8.63806 8.06707 4.85179 0 0 0
88 4 8.79516 9.30373 5.00201 0 0 0
80 3 7.91061 9.66377 7.46786 0 0 0
15 5 0.503141 1.43316 -0.385077 0 0 0
26 5 8.90636 0.476725 10.7715 0 0 0
74 3 7.49335 9.54244 13.9296 0 0 0
96 5 6.9484 9.55077 14.8758 0 0 0
95 5 7.4924 8.48188 13.6664 0 0 0
94 5 8.19996 9.79693 10.6848 0 0 0
93 5 6.69948 9.02093 10.2928 0 0 0
92 5 5.52034 9.67703 13.1763 0 0 0
83 4 9.9546 9.05033 14.7843 0 0 0
79 3 8.95283 10.0569 14.3099 0 0 0
62 7 9.69471 1.52239 11.1345 0 0 0
59 6 8.07286 -0.778105 8.13489 0 0 0
55 6 6.33996 -0.699362 6.26397 0 0 0
51 6 4.62021 -0.591186 4.4739 0 0 0
47 6 2.92393 -0.500836 2.68509 0 0 0
43 6 1.21258 -0.440922 0.931288 0 0 0
118 5 7.12984 10.3177 5.47513 0 0 0
117 5 8.66048 11.1298 5.82219 0 0 0
98 5 8.44521 11.1402 8.98436 0 0 0
97 5 6.75334 11.2667 8.49571 0 0 0
86 3 8.10054 10.1963 5.96724 0 0 0