LAMMPS (8 Feb 2023)
OMP_NUM_THREADS environment is not set. Defaulting to 1 thread. (src/comm.cpp:98)
  using 1 OpenMP thread(s) per MPI task

# define variables

variable       spacing index 10.0
variable       lbox index 20.0
variable       sname string mc_test

units           real
atom_style      full
boundary        p p p
#pair_style      lj/cut/coul/long  14
pair_style      lj/charmm/coul/long/opt 9 10.00000
pair_modify     mix arithmetic tail yes
special_bonds   lj/coul 0.0 0.0 1.0
#kspace_style    ewald 0.0001
bond_style      harmonic
angle_style     harmonic
dihedral_style  harmonic
improper_style  umbrella
kspace_style    pppm 0.0001

# initialize a simple cumbic box for the initial structure

lattice        sc ${spacing}
lattice        sc 10.0
Lattice spacing in x,y,z = 10 10 10
region         mybox block 0 ${lbox} 0 ${lbox} 0 ${lbox} units box
region         mybox block 0 20.0 0 ${lbox} 0 ${lbox} units box
region         mybox block 0 20.0 0 20.0 0 ${lbox} units box
region         mybox block 0 20.0 0 20.0 0 20.0 units box
create_box     8 mybox                bond/types 13                angle/types 5                dihedral/types 11                improper/types 1                extra/bond/per/atom 13                extra/angle/per/atom 10                extra/dihedral/per/atom 20                extra/improper/per/atom 20                extra/special/per/atom 100
Created orthogonal box = (0 0 0) to (20 20 20)
  1 by 1 by 1 MPI processor grid

molecule       xlig xlig.lammps.txt
Read molecule template xlig:
  1 molecules
  0 fragments
  68 atoms with max type 7
  70 bonds with max type 10
  128 angles with max type 4
  188 dihedrals with max type 11
  39 impropers with max type 1
molecule       oleic oleic.lammps.txt
Read molecule template oleic:
  1 molecules
  0 fragments
  54 atoms with max type 6
  53 bonds with max type 13
  100 angles with max type 5
  141 dihedrals with max type 9
  9 impropers with max type 1


#pair_modify          mix geometric
#neighbor             2.0 multi
#neigh_modify         every 2 delay 4 check yes
thermo_style         multi
thermo_modify        line multi format float %14.6f flush yes



# originally used box instead of single, which takes no args and auto populates the box until full
create_atoms   0 single 0  0  0   mol xlig 42 units box
Created 68 atoms
  using box units in orthogonal box = (0 0 0) to (20 20 20)
  create_atoms CPU = 0.001 seconds
create_atoms   0 single 10 10 10  mol oleic 42 units box
Created 54 atoms
  using box units in orthogonal box = (0 0 0) to (20 20 20)
  create_atoms CPU = 0.000 seconds

# coeffs
# Masses

mass    1 1.2011E+01 # C_3
mass    2 1.4007E+01 # N_3
mass    3 1.2011E+01 # C_R
mass    4 1.5999E+01 # O_2
mass    5 3.2060E+01 # S_3
mass    6 1.0080E+00 # H_
mass    7 1.0080E+00 # H___A
mass    8 1.5999E+01 # O_R


pair_coeff           1 1 0.09510000 3.47299041 # C_3 C_3
pair_coeff           2 2 0.07740000 3.26256026 # N_3 N_3
pair_coeff           3 3 0.09510000 3.47299041 # C_R C_R
pair_coeff           4 4 0.09570000 3.03315369 # O_2 O_2
pair_coeff           5 5 0.34400001 3.59032202 # S_3 S_3
pair_coeff           6 6 0.01520000 2.84642134 # H_ H_
pair_coeff           7 7 0.01520000 2.84642134 # H___A H___A
pair_coeff           8 8 0.09570000 3.03315369 # O_R O_R


pair_modify          mix geometric
neighbor             2.0 multi
neigh_modify         every 2 delay 4 check yes
thermo_style         multi
WARNING: New thermo_style command, previous thermo_modify settings will be lost (src/output.cpp:896)
thermo_modify        line multi format float %14.6f flush yes

bond_coeff           1 350 1.53000 # C_3 C_3
bond_coeff           2 350 1.09000 # C_3 H_
bond_coeff           3 350 1.46200 # N_3 C_3
bond_coeff           4 350 1.39200 # N_3 C_R
bond_coeff           5 525 1.39000 # C_R C_R
bond_coeff           6 350 1.02000 # C_R H_
bond_coeff           7 700 1.25000 # O_2 C_R
bond_coeff           8 350 1.73000 # S_3 C_R
bond_coeff           9 350 1.80000 # S_3 C_3
bond_coeff           10 350 1.36000 # S_3 H___A
bond_coeff           11 525 1.35000 # O_R C_R
bond_coeff           12 350 0.98000 # O_R H___A
bond_coeff           13 350 1.46000 # C_R C_3


angle_coeff          1 50 109.47100 # X C_3 X
angle_coeff          2 50 106.70000 # X N_3 X
angle_coeff          3 50 120 # X C_R X
angle_coeff          4 50 92.10000 # X S_3 X
angle_coeff          5 50 120 # X O_R X


dihedral_coeff       1 0.08333 -1 6 # C_R C_R C_3 X
dihedral_coeff       2 0.08333 -1 6 # O_2 C_R C_3 X
dihedral_coeff       3 0.08333 -1 6 # O_R C_R C_3 X
dihedral_coeff       4 0.11111 1 3 # X C_3 C_3 X
dihedral_coeff       5 0.16667 1 3 # X C_R C_3 X
dihedral_coeff       6 3.12500 -1 2 # X C_R C_R X
dihedral_coeff       7 0.16667 1 3 # X N_3 C_3 X
dihedral_coeff       8 0.12500 -1 6 # X N_3 C_R C_R
dihedral_coeff       9 6.25000 -1 2 # X O_R C_R X
dihedral_coeff       10 0.33333 1 3 # X S_3 C_3 X
dihedral_coeff       11 0.50000 -1 2 # X S_3 C_R X

improper_coeff       1 13.33333 0 # C_R X X X

timestep             0.5

print                .
.
print                ==========================================
==========================================
print                "500 steps CG Minimization"
500 steps CG Minimization
print                ==========================================
==========================================
print                .
.

dump                 1 all custom 25 ${sname}.min.lammpstrj id type xu yu zu vx vy vz
dump                 1 all custom 25 mc_test.min.lammpstrj id type xu yu zu vx vy vz
thermo               10
min_style            sd
minimize             1.0e-4 1.0e-4 500 5000

CITE-CITE-CITE-CITE-CITE-CITE-CITE-CITE-CITE-CITE-CITE-CITE-CITE

Your simulation uses code contributions which should be cited:

- neighbor multi command: doi:10.1016/j.cpc.2008.03.005, doi:10.1007/s40571-020-00361-2

@Article{Intveld08,
 author =  {in 't Veld, P. J. and S. J.~Plimpton and G. S. Grest},
 title =   {Accurate and Efficient Methods for Modeling Colloidal
            Mixtures in an Explicit Solvent using Molecular Dynamics},
 journal = {Comput.\ Phys.\ Commut.},
 year =    2008,
 volume =  179,
 pages =   {320--329}
}

@article{Shire2020,
 author = {Shire, Tom and Hanley, Kevin J. and Stratford, Kevin},
 title = {{DEM} Simulations of Polydisperse Media: Efficient Contact
          Detection Applied to Investigate the Quasi-Static Limit},
 journal = {Computational Particle Mechanics},
 year = {2020}
}

CITE-CITE-CITE-CITE-CITE-CITE-CITE-CITE-CITE-CITE-CITE-CITE-CITE

Switching to 'neigh_modify every 1 delay 0 check yes' setting during minimization
PPPM initialization ...
WARNING: System is not charge neutral, net charge = 8.9862 (src/kspace.cpp:327)
  using 12-bit tables for long-range coulomb (src/kspace.cpp:342)
  G vector (1/distance) = 0.27621456
  grid = 12 12 12
  stencil order = 5
  estimated absolute RMS force accuracy = 0.014812192
  estimated relative force accuracy = 4.4606477e-05
  using double precision FFTW3
  3d grid and FFT values/proc = 6859 1728
Generated 28 of 28 mixed pair_coeff terms from geometric mixing rule
Neighbor list info ...
  update: every = 1 steps, delay = 0 steps, check = yes
  max neighbors/atom: 2000, page size: 100000
  master list distance cutoff = 12
  ghost atom cutoff = 12
  binsize = 6, bins = 4 4 4
  1 neighbor lists, perpetual/occasional/extra = 1 0 0
  (1) pair lj/charmm/coul/long/opt, perpetual
      attributes: half, newton on
      pair build: half/multi/newton
      stencil: half/multi/3d
      bin: multi
Per MPI rank memory allocation (min/avg/max) = 32.21 | 32.21 | 32.21 Mbytes
------------ Step              0 ----- CPU =            0 (sec) -------------
TotEng   = 1502001358329.588867 KinEng   =       0.000000 Temp     =       0.000000 
PotEng   = 1502001358329.588867 E_bond   =    4870.879773 E_angle  =    4040.659321 
E_dihed  =      48.515035 E_impro  =      41.965965 E_vdwl   = 1502001352649.789062 
E_coul   =   -5335.817109 E_long   =    2013.596350 Press    = 51494947082640.687500
------------ Step             10 ----- CPU =   0.00689807 (sec) -------------
TotEng   = 34954822.335968 KinEng   =       0.000000 Temp     =       0.000000 
PotEng   = 34954822.335968 E_bond   =    3893.240069 E_angle  =    3964.471989 
E_dihed  =      49.911041 E_impro  =      42.896560 E_vdwl   = 34948887.077671 
E_coul   =   -3890.209356 E_long   =    1874.947995 Press    = 1198931045.326001
------------ Step             20 ----- CPU =  0.009704711 (sec) -------------
TotEng   = 1055441.939001 KinEng   =       0.000000 Temp     =       0.000000 
PotEng   = 1055441.939001 E_bond   =    6499.544195 E_angle  =    4410.941152 
E_dihed  =      55.250352 E_impro  =      93.926512 E_vdwl   = 1046181.380922 
E_coul   =   -3541.301392 E_long   =    1742.197261 Press    = 36027829.700167
------------ Step             30 ----- CPU =   0.01318099 (sec) -------------
TotEng   =  182087.185504 KinEng   =       0.000000 Temp     =       0.000000 
PotEng   =  182087.185504 E_bond   =   11087.957237 E_angle  =    4737.020099 
E_dihed  =      73.201696 E_impro  =     105.192293 E_vdwl   =  168917.546841 
E_coul   =   -4369.106773 E_long   =    1535.374111 Press    = 5795711.145233
------------ Step             39 ----- CPU =   0.03277456 (sec) -------------
TotEng   = 21482028.716037 KinEng   =       0.000000 Temp     =       0.000000 
PotEng   = 21482028.716037 E_bond   =   16426.285834 E_angle  =    5039.718988 
E_dihed  =     108.243604 E_impro  =     134.251271 E_vdwl   = 21463401.362658 
E_coul   =   -4404.401950 E_long   =    1323.255631 Press    = 735831992.782423
Loop time of 0.0327883 on 1 procs for 39 steps with 122 atoms

99.7% CPU use with 1 MPI tasks x 1 OpenMP threads

Minimization stats:
  Stopping criterion = linesearch alpha is zero
  Energy initial, next-to-last, final = 
      1502001358329.59   54450.7453427934   21482028.7160368
  Force two-norm initial, final = 8.5130161e+13 3.1857966e+08
  Force max component initial, final = 4.1468528e+13 1.7045444e+08
  Final line search alpha, max atom move = 2.0244792e-17 3.4508148e-09
  Iterations, force evaluations = 39 113

MPI task timing breakdown:
Section |  min time  |  avg time  |  max time  |%varavg| %total
---------------------------------------------------------------
Pair    | 0.012327   | 0.012327   | 0.012327   |   0.0 | 37.60
Bond    | 0.003893   | 0.003893   | 0.003893   |   0.0 | 11.87
Kspace  | 0.014417   | 0.014417   | 0.014417   |   0.0 | 43.97
Neigh   | 0.00092493 | 0.00092493 | 0.00092493 |   0.0 |  2.82
Comm    | 0.00057549 | 0.00057549 | 0.00057549 |   0.0 |  1.76
Output  | 0.00022013 | 0.00022013 | 0.00022013 |   0.0 |  0.67
Modify  | 0          | 0          | 0          |   0.0 |  0.00
Other   |            | 0.0004305  |            |       |  1.31

Nlocal:            122 ave         122 max         122 min
Histogram: 1 0 0 0 0 0 0 0 0 0
Nghost:           1363 ave        1363 max        1363 min
Histogram: 1 0 0 0 0 0 0 0 0 0
Neighs:           5449 ave        5449 max        5449 min
Histogram: 1 0 0 0 0 0 0 0 0 0

Total # of neighbors = 5449
Ave neighs/atom = 44.663934
Ave special neighs/atom = 10.967213
Neighbor list builds = 2
Dangerous builds = 0
min_style            cg
minimize             1.0e-4 1.0e-4 500 5000
Switching to 'neigh_modify every 1 delay 0 check yes' setting during minimization
PPPM initialization ...
  using 12-bit tables for long-range coulomb (src/kspace.cpp:342)
  G vector (1/distance) = 0.27621456
  grid = 12 12 12
  stencil order = 5
  estimated absolute RMS force accuracy = 0.014812192
  estimated relative force accuracy = 4.4606477e-05
  using double precision FFTW3
  3d grid and FFT values/proc = 6859 1728
Generated 28 of 28 mixed pair_coeff terms from geometric mixing rule
Per MPI rank memory allocation (min/avg/max) = 32.21 | 32.21 | 32.21 Mbytes
------------ Step             39 ----- CPU =            0 (sec) -------------
TotEng   = 21481080.763744 KinEng   =       0.000000 Temp     =       0.000000 
PotEng   = 21481080.763744 E_bond   =   16426.285834 E_angle  =    5039.718988 
E_dihed  =     108.243604 E_impro  =     134.251271 E_vdwl   = 21462417.481051 
E_coul   =   -4368.472637 E_long   =    1323.255631 Press    = 735798244.831267
------------ Step             40 ----- CPU =  0.000597078 (sec) -------------
TotEng   = 6665431.708177 KinEng   =       0.000000 Temp     =       0.000000 
PotEng   = 6665431.708177 E_bond   =   16373.766303 E_angle  =    5042.737567 
E_dihed  =     108.087756 E_impro  =     134.251700 E_vdwl   = 6646880.347265 
E_coul   =   -4428.787410 E_long   =    1321.304995 Press    = 227829672.514087
------------ Step             50 ----- CPU =   0.00387123 (sec) -------------
TotEng   =   40536.114814 KinEng   =       0.000000 Temp     =       0.000000 
PotEng   =   40536.114814 E_bond   =   18232.023349 E_angle  =    5077.488666 
E_dihed  =     124.404895 E_impro  =     147.955387 E_vdwl   =   20762.446646 
E_coul   =   -4974.432063 E_long   =    1166.227933 Press    =  568121.298382
------------ Step             56 ----- CPU =   0.01696092 (sec) -------------
TotEng   = 34145768.627468 KinEng   =       0.000000 Temp     =       0.000000 
PotEng   = 34145768.627468 E_bond   =   15995.911996 E_angle  =    4388.857791 
E_dihed  =     119.878107 E_impro  =     169.563700 E_vdwl   = 34129858.711170 
E_coul   =   -5527.271196 E_long   =     762.975901 Press    = 1170033099.192963
Loop time of 0.0169741 on 1 procs for 17 steps with 122 atoms

99.7% CPU use with 1 MPI tasks x 1 OpenMP threads

Minimization stats:
  Stopping criterion = linesearch alpha is zero
  Energy initial, next-to-last, final = 
      21481080.7637435    26737.454918955   34145768.6274682
  Force two-norm initial, final = 3.1857966e+08 7.6482398e+08
  Force max component initial, final = 1.7045444e+08 3.9764531e+08
  Final line search alpha, max atom move = 5.393192e-16 2.1445775e-07
  Iterations, force evaluations = 17 57

MPI task timing breakdown:
Section |  min time  |  avg time  |  max time  |%varavg| %total
---------------------------------------------------------------
Pair    | 0.0063282  | 0.0063282  | 0.0063282  |   0.0 | 37.28
Bond    | 0.0019988  | 0.0019988  | 0.0019988  |   0.0 | 11.78
Kspace  | 0.0073599  | 0.0073599  | 0.0073599  |   0.0 | 43.36
Neigh   | 0.00047193 | 0.00047193 | 0.00047193 |   0.0 |  2.78
Comm    | 0.00028321 | 0.00028321 | 0.00028321 |   0.0 |  1.67
Output  | 0.00020953 | 0.00020953 | 0.00020953 |   0.0 |  1.23
Modify  | 0          | 0          | 0          |   0.0 |  0.00
Other   |            | 0.0003226  |            |       |  1.90

Nlocal:            122 ave         122 max         122 min
Histogram: 1 0 0 0 0 0 0 0 0 0
Nghost:           1317 ave        1317 max        1317 min
Histogram: 1 0 0 0 0 0 0 0 0 0
Neighs:           5459 ave        5459 max        5459 min
Histogram: 1 0 0 0 0 0 0 0 0 0

Total # of neighbors = 5459
Ave neighs/atom = 44.745902
Ave special neighs/atom = 10.967213
Neighbor list builds = 1
Dangerous builds = 0
#now                 minimize the entire system
minimize             1.0e-4 1.0e-4 500 5000
Switching to 'neigh_modify every 1 delay 0 check yes' setting during minimization
PPPM initialization ...
  using 12-bit tables for long-range coulomb (src/kspace.cpp:342)
  G vector (1/distance) = 0.27621456
  grid = 12 12 12
  stencil order = 5
  estimated absolute RMS force accuracy = 0.014812192
  estimated relative force accuracy = 4.4606477e-05
  using double precision FFTW3
  3d grid and FFT values/proc = 6859 1728
Generated 28 of 28 mixed pair_coeff terms from geometric mixing rule
Per MPI rank memory allocation (min/avg/max) = 32.21 | 32.21 | 32.21 Mbytes
------------ Step             56 ----- CPU =            0 (sec) -------------
TotEng   = 34145768.627468 KinEng   =       0.000000 Temp     =       0.000000 
PotEng   = 34145768.627468 E_bond   =   15995.911996 E_angle  =    4388.857791 
E_dihed  =     119.878107 E_impro  =     169.563700 E_vdwl   = 34129858.711170 
E_coul   =   -5527.271196 E_long   =     762.975901 Press    = 1170033099.192960
------------ Step             60 ----- CPU =   0.00253869 (sec) -------------
TotEng   =  124807.938172 KinEng   =       0.000000 Temp     =       0.000000 
PotEng   =  124807.938172 E_bond   =   16083.787613 E_angle  =    4338.305697 
E_dihed  =     124.282607 E_impro  =     183.843369 E_vdwl   =  108780.504544 
E_coul   =   -5451.156283 E_long   =     748.370625 Press    = 3565126.512387
------------ Step             70 ----- CPU =  0.006668453 (sec) -------------
TotEng   =   21203.193732 KinEng   =       0.000000 Temp     =       0.000000 
PotEng   =   21203.193732 E_bond   =   13811.775884 E_angle  =    3829.633929 
E_dihed  =     120.738261 E_impro  =     202.836794 E_vdwl   =    8711.252639 
E_coul   =   -5868.054726 E_long   =     395.010951 Press    =  128923.834248
------------ Step             80 ----- CPU =   0.02103078 (sec) -------------
TotEng   =  436284.197054 KinEng   =       0.000000 Temp     =       0.000000 
PotEng   =  436284.197054 E_bond   =   12586.027996 E_angle  =    2797.206448 
E_dihed  =     120.991428 E_impro  =     193.882250 E_vdwl   =  428338.458267 
E_coul   =   -7366.176054 E_long   =    -386.193282 Press    = 14520759.750439
Loop time of 0.0210442 on 1 procs for 24 steps with 122 atoms

99.7% CPU use with 1 MPI tasks x 1 OpenMP threads

Minimization stats:
  Stopping criterion = linesearch alpha is zero
  Energy initial, next-to-last, final = 
      34145768.6274683   15477.6799406801   436284.197053757
  Force two-norm initial, final = 7.6482398e+08 3725226.7
  Force max component initial, final = 3.9764531e+08 1522290
  Final line search alpha, max atom move = 3.7853836e-15 5.7624518e-09
  Iterations, force evaluations = 24 68

MPI task timing breakdown:
Section |  min time  |  avg time  |  max time  |%varavg| %total
---------------------------------------------------------------
Pair    | 0.007627   | 0.007627   | 0.007627   |   0.0 | 36.24
Bond    | 0.0025154  | 0.0025154  | 0.0025154  |   0.0 | 11.95
Kspace  | 0.0090401  | 0.0090401  | 0.0090401  |   0.0 | 42.96
Neigh   | 0.0009458  | 0.0009458  | 0.0009458  |   0.0 |  4.49
Comm    | 0.00035474 | 0.00035474 | 0.00035474 |   0.0 |  1.69
Output  | 0.00020871 | 0.00020871 | 0.00020871 |   0.0 |  0.99
Modify  | 0          | 0          | 0          |   0.0 |  0.00
Other   |            | 0.0003524  |            |       |  1.67

Nlocal:            122 ave         122 max         122 min
Histogram: 1 0 0 0 0 0 0 0 0 0
Nghost:           1296 ave        1296 max        1296 min
Histogram: 1 0 0 0 0 0 0 0 0 0
Neighs:           5473 ave        5473 max        5473 min
Histogram: 1 0 0 0 0 0 0 0 0 0

Total # of neighbors = 5473
Ave neighs/atom = 44.860656
Ave special neighs/atom = 10.967213
Neighbor list builds = 2
Dangerous builds = 0
undump               1

print                .
.
print                =====================================
=====================================
print                "NVT dynamics to heat system"
NVT dynamics to heat system
print                =====================================
=====================================
print                .
.

reset_timestep       0
#fix                  shakeH all shake 0.0001 7 500 m 1.0079
velocity             all create 0.0 12345678 dist uniform
thermo               100
thermo_style         multi
WARNING: New thermo_style command, previous thermo_modify settings will be lost (src/output.cpp:896)
dump                 1 all custom 1000 ${sname}.heat.lammpstrj id type xu yu zu vx vy vz
dump                 1 all custom 1000 mc_test.heat.lammpstrj id type xu yu zu vx vy vz
fix                  4 all nvt temp 1.0 300.0 100.0
run                  10000
PPPM initialization ...
  using 12-bit tables for long-range coulomb (src/kspace.cpp:342)
  G vector (1/distance) = 0.27621456
  grid = 12 12 12
  stencil order = 5
  estimated absolute RMS force accuracy = 0.014812192
  estimated relative force accuracy = 4.4606477e-05
  using double precision FFTW3
  3d grid and FFT values/proc = 6859 1728
Generated 28 of 28 mixed pair_coeff terms from geometric mixing rule
Per MPI rank memory allocation (min/avg/max) = 31.08 | 31.08 | 31.08 Mbytes
------------ Step              0 ----- CPU =            0 (sec) -------------
TotEng   =    436157.3751 KinEng   =         0.0000 Temp     =         0.0000 
PotEng   =    436157.3751 E_bond   =     12586.0280 E_angle  =      2797.2064 
E_dihed  =       120.9914 E_impro  =       193.8823 E_vdwl   =    428248.4897 
E_coul   =     -7403.0294 E_long   =      -386.1933 Press    =  14517500.9227
------------ Step            100 ----- CPU =   0.02415929 (sec) -------------
TotEng   =     68179.5345 KinEng   =         0.0000 Temp     =         0.0000 
PotEng   =     68179.5345 E_bond   =     65668.1705 E_angle  =      3322.8590 
E_dihed  =       119.2374 E_impro  =       232.5389 E_vdwl   =      7607.6681 
E_coul   =     -7701.9603 E_long   =     -1068.9790 Press    =   -305427.2300
------------ Step            200 ----- CPU =   0.04913296 (sec) -------------
TotEng   =     56140.7682 KinEng   =         0.0000 Temp     =         0.0000 
PotEng   =     56140.7682 E_bond   =     54670.2218 E_angle  =      3187.8754 
E_dihed  =       120.9779 E_impro  =       239.0420 E_vdwl   =      7775.5591 
E_coul   =     -8672.0234 E_long   =     -1180.8846 Press    =   -231826.1814
------------ Step            300 ----- CPU =   0.07242849 (sec) -------------
TotEng   =     42422.7072 KinEng   =         0.0000 Temp     =         0.0000 
PotEng   =     42422.7072 E_bond   =     41674.2711 E_angle  =      3000.5382 
E_dihed  =       121.7001 E_impro  =       227.9103 E_vdwl   =      7204.7920 
E_coul   =     -8490.9151 E_long   =     -1315.5894 Press    =   -159691.9454
------------ Step            400 ----- CPU =   0.09453577 (sec) -------------
TotEng   =     36424.6022 KinEng   =         0.0000 Temp     =         0.0000 
PotEng   =     36424.6022 E_bond   =     35941.0586 E_angle  =      2825.8695 
E_dihed  =       123.1470 E_impro  =       218.3086 E_vdwl   =      7441.6671 
E_coul   =     -8726.0068 E_long   =     -1399.4419 Press    =   -113665.0724
------------ Step            500 ----- CPU =     0.116102 (sec) -------------
TotEng   =     31249.5442 KinEng   =         0.0000 Temp     =         0.0000 
PotEng   =     31249.5442 E_bond   =     31670.5444 E_angle  =      2671.4806 
E_dihed  =       121.8166 E_impro  =       203.4667 E_vdwl   =      6932.9729 
E_coul   =     -8856.6724 E_long   =     -1494.0644 Press    =   -103207.5876
ERROR on proc 0: Out of range atoms - cannot compute PPPM (src/KSPACE/pppm.cpp:1839)
Last command: run                  10000
