ITEM: TIMESTEP
0
ITEM: NUMBER OF ATOMS
122
ITEM: BOX BOUNDS pp pp pp
0.0000000000000000e+00 2.0000000000000000e+01
0.0000000000000000e+00 2.0000000000000000e+01
0.0000000000000000e+00 2.0000000000000000e+01
ITEM: ATOMS id type xu yu zu vx vy vz
69 1 4.68267 8.1239 8.74105 0 0 0
122 6 3.89808 8.00036 9.44755 0 0 0
118 5 6.80338 7.16486 9.41397 0 0 0
117 5 6.9434 8.87818 9.57181 0 0 0
70 2 6.09035 7.72719 9.07431 0 0 0
108 5 8.43194 6.80111 9.57365 0 0 0
107 5 8.57195 8.51443 9.73149 0 0 0
75 3 9.44846 7.79448 9.67312 0 0 0
98 5 9.35397 8.68017 9.83629 0 0 0
97 5 9.21395 6.96684 9.67845 0 0 0
88 4 5.90381 7.86845 9.67033 0 0 0
86 3 6.93667 7.87669 9.4883 0 0 0
80 3 8.34898 7.69497 9.63782 0 0 0
1 1 6.80767 6.14577 -7.40615 0 0 0
68 6 5.45947 7.44491 -6.22523 0 0 0
67 6 5.48103 6.17036 -6.10253 0 0 0
66 6 4.51279 3.26664 -4.96194 0 0 0
65 6 2.8489 2.80495 -3.27129 0 0 0
40 6 2.65829 2.21424 -3.01688 0 0 0
39 6 2.32667 6.66386 -3.19281 0 0 0
38 6 3.99056 7.12554 -4.88347 0 0 0
37 6 5.83505 3.69044 -6.17109 0 0 0
36 6 5.99049 3.72504 -6.32806 0 0 0
35 6 7.4442 4.09426 -7.80129 0 0 0
34 6 7.38746 4.81269 -7.82655 0 0 0
33 6 7.10777 6.85223 -7.78145 0 0 0
32 6 7.11855 6.21495 -7.72011 0 0 0
31 1 5.70001 6.40186 -6.34431 0 0 0
30 3 4.06847 4.02834 -4.46961 0 0 0
29 3 3.18177 3.73962 -3.56384 0 0 0
28 3 0.357468 2.69985 -0.665193 0 0 0
27 3 0.122897 1.41398 -0.288987 0 0 0
14 3 0.829763 0.474711 -0.878997 0 0 0
13 3 1.81715 0.740148 -1.8813 0 0 0
12 3 2.05172 2.02601 -2.2575 0 0 0
11 3 1.2989 3.04644 -1.63141 0 0 0
10 4 1.14591 5.41138 -1.32543 0 0 0
9 3 1.40239 4.45529 -2.17402 0 0 0
8 3 2.52965 4.73677 -3.03428 0 0 0
7 3 2.91087 5.9182 -3.5431 0 0 0
6 3 3.79756 6.20692 -4.44887 0 0 0
5 3 4.44968 5.20977 -4.97843 0 0 0
4 2 5.54619 5.52255 -5.67114 0 0 0
3 1 6.02566 4.28116 -6.4255 0 0 0
2 1 6.97588 4.76678 -7.41607 0 0 0
121 5 5.24784 11.038 9.55268 0 0 0
120 5 5.28895 12.743 9.69831 0 0 0
119 5 5.34425 12.1471 9.65553 0 0 0
115 5 7.47654 11.7255 9.86913 0 0 0
114 5 7.53185 11.1296 9.82634 0 0 0
87 3 5.67093 11.9815 9.5789 0 0 0
84 3 7.16371 12.0068 9.7549 0 0 0
81 3 7.84433 13.265 9.93813 0 0 0
41 6 2.26148 -0.0215519 -2.37363 0 0 0
15 5 0.638755 -1.22022 -0.358692 0 0 0
110 5 7.35423 14.1175 10.0525 0 0 0
109 5 7.40953 13.5216 10.0097 0 0 0
76 3 9.92381 12.3385 10.1039 0 0 0
102 5 9.64073 13.1083 10.2355 0 0 0
101 5 9.62902 14.3084 10.3333 0 0 0
100 5 9.70774 11.3123 10.0949 0 0 0
99 5 9.59713 12.5041 10.1805 0 0 0
77 3 9.33711 13.2902 10.1141 0 0 0
63 6 -0.678292 1.15184 0.388785 0 0 0
71 3 11.9671 7.50545 9.94268 0 0 0
73 3 10.8608 7.61276 9.82265 0 0 0
93 5 10.9414 6.61139 9.85034 0 0 0
90 5 11.7326 6.67782 9.948 0 0 0
64 6 -0.272688 3.52666 -0.278823 0 0 0
72 3 13.3795 7.32373 10.0922 0 0 0
74 3 13.8692 8.35855 10.3358 0 0 0
105 5 14.5406 9.71612 10.5261 0 0 0
96 5 14.8951 8.0443 10.4293 0 0 0
95 5 13.2665 8.40806 10.2696 0 0 0
94 5 11.0722 8.42404 10.0153 0 0 0
92 5 13.3612 6.31406 10.1077 0 0 0
91 5 13.9798 7.16673 10.2502 0 0 0
89 5 11.8727 8.39114 10.1058 0 0 0
79 3 13.9379 9.76562 10.46 0 0 0
62 7 -8.50274 -8.67684 9.20384 0 0 0
61 6 -6.80607 -7.98695 7.59593 0 0 0
60 6 -6.56751 -8.25369 7.39115 0 0 0
59 6 -6.66539 -5.76247 7.20619 0 0 0
58 6 -6.90394 -5.49572 7.41098 0 0 0
57 6 -5.34555 -6.70239 6.01264 0 0 0
56 6 -5.107 -6.96914 5.80785 0 0 0
55 6 -5.20488 -4.47791 5.6229 0 0 0
54 6 -5.44343 -4.21117 5.82768 0 0 0
53 6 -3.88504 -5.41784 4.42934 0 0 0
52 6 -3.64649 -5.68459 4.22455 0 0 0
51 6 -3.79911 -3.25123 4.10004 0 0 0
50 6 -4.03767 -2.98449 4.30483 0 0 0
49 6 -2.42453 -4.13329 2.84604 0 0 0
48 6 -2.18598 -4.40003 2.64125 0 0 0
47 6 -2.3386 -1.96668 2.51675 0 0 0
46 6 -2.57716 -1.69993 2.72154 0 0 0
45 6 -0.964024 -2.84873 1.26275 0 0 0
44 6 -0.725471 -3.11548 1.05796 0 0 0
43 6 -0.878092 -0.682126 0.933449 0 0 0
42 6 -1.11664 -0.415379 1.13824 0 0 0
26 5 -8.05835 -7.36692 9.0407 0 0 0
25 1 -6.93513 -7.60445 7.67983 0 0 0
24 1 -6.53633 -6.14496 7.12229 0 0 0
23 1 -5.40468 -6.31188 6.16756 0 0 0
22 1 -5.06062 -4.91026 5.67046 0 0 0
21 1 -3.94417 -5.02732 4.58426 0 0 0
20 1 -3.60011 -3.62571 4.08717 0 0 0
19 1 -2.48366 -3.74277 3.00096 0 0 0
18 1 -2.1396 -2.34116 2.50387 0 0 0
17 1 -1.09309 -2.46624 1.34664 0 0 0
16 1 -0.749029 -1.06462 0.849549 0 0 0
116 5 14.1008 12.1743 10.779 0 0 0
113 5 15.5156 10.8918 10.8378 0 0 0
112 5 11.8744 11.5942 10.3706 0 0 0
111 5 11.7872 10.3858 10.2607 0 0 0
106 5 12.912 10.0799 10.3664 0 0 0
104 5 11.8099 12.2895 10.4206 0 0 0
103 5 11.7085 13.382 10.499 0 0 0
85 4 13.6847 11.5532 10.4771 0 0 0
83 4 14.4507 10.8168 10.5056 0 0 0
78 3 11.4947 12.4632 10.3982 0 0 0
82 3 12.1896 11.4205 10.393 0 0 0
ITEM: TIMESTEP
25
ITEM: NUMBER OF ATOMS
122
ITEM: BOX BOUNDS pp pp pp
0.0000000000000000e+00 2.0000000000000000e+01
0.0000000000000000e+00 2.0000000000000000e+01
0.0000000000000000e+00 2.0000000000000000e+01
ITEM: ATOMS id type xu yu zu vx vy vz
69 1 4.81075 8.07248 9.19465 0 0 0
122 6 4.02102 8.32403 9.56986 0 0 0
118 5 5.90437 6.68129 8.95823 0 0 0
117 5 6.19966 8.23314 8.89349 0 0 0
70 2 6.17508 8.63719 8.89579 0 0 0
108 5 8.25714 6.56347 9.71053 0 0 0
107 5 8.45741 8.68285 10.0445 0 0 0
75 3 9.46399 7.88221 9.40103 0 0 0
98 5 9.09236 8.91073 9.78406 0 0 0
97 5 8.91145 6.95945 9.18566 0 0 0
88 4 5.88827 8.16688 9.98533 0 0 0
86 3 6.74119 7.43913 9.32006 0 0 0
1 1 6.58928 6.15728 -7.56777 0 0 0
68 6 5.41986 7.47 -6.21953 0 0 0
67 6 5.48633 5.46865 -6.58256 0 0 0
66 6 3.71115 2.82068 -4.07516 0 0 0
65 6 2.74857 3.3037 -3.48379 0 0 0
40 6 2.81931 1.68771 -3.03153 0 0 0
39 6 2.41426 6.84235 -3.3095 0 0 0
38 6 3.95174 7.17104 -4.8111 0 0 0
37 6 5.5709 3.52716 -5.94672 0 0 0
36 6 6.41683 3.76636 -6.64816 0 0 0
35 6 7.43779 3.91502 -7.64229 0 0 0
34 6 7.03535 4.8152 -8.06587 0 0 0
33 6 6.93506 7.15584 -7.69311 0 0 0
32 6 7.63234 6.08712 -7.85396 0 0 0
31 1 5.963 6.44475 -6.23142 0 0 0
30 3 3.84953 3.89818 -4.26715 0 0 0
29 3 2.99916 3.99741 -3.46165 0 0 0
28 3 0.39509 2.82622 -0.766273 0 0 0
27 3 0.181458 1.53619 -0.399636 0 0 0
14 3 0.926928 0.455639 -0.944071 0 0 0
13 3 1.86465 0.733435 -1.95773 0 0 0
12 3 2.04311 1.91954 -2.26106 0 0 0
11 3 1.36695 3.08415 -1.73364 0 0 0
10 4 1.07637 5.40295 -1.38638 0 0 0
9 3 1.55001 4.45759 -2.02436 0 0 0
8 3 2.40537 4.91989 -2.94444 0 0 0
7 3 2.81637 6.06151 -3.52928 0 0 0
6 3 3.7672 6.23686 -4.4687 0 0 0
5 3 4.44271 5.0883 -4.78146 0 0 0
4 2 5.71475 5.32338 -5.31745 0 0 0
3 1 5.73176 4.44052 -6.48971 0 0 0
2 1 7.07747 4.81161 -7.07573 0 0 0
41 6 2.51975 0.273223 -2.6186 0 0 0
80 3 8.13782 7.5879 10.1276 0 0 0
121 5 5.03444 10.9936 9.35907 0 0 0
120 5 4.50533 12.698 9.2489 0 0 0
100 5 9.5882 11.7287 9.37822 0 0 0
77 3 9.22751 13.6638 9.86775 0 0 0
114 5 6.699 11.2051 9.4104 0 0 0
87 3 5.26478 12.01 9.21094 0 0 0
84 3 6.6863 12.2308 9.47863 0 0 0
81 3 7.72084 13.4352 10.0034 0 0 0
101 5 9.40198 14.6783 10.1744 0 0 0
15 5 0.719198 -1.21721 -0.437772 0 0 0
110 5 7.84388 14.5515 10.0009 0 0 0
109 5 6.95448 14.2027 10.1703 0 0 0
99 5 9.15694 12.1146 10.5266 0 0 0
102 5 9.33535 13.5137 10.9242 0 0 0
119 5 4.92608 11.9778 10.1962 0 0 0
115 5 6.40095 11.7725 10.4057 0 0 0
63 6 -0.589866 1.518 0.276092 0 0 0
93 5 11.0016 6.23036 9.98091 0 0 0
73 3 10.9739 7.23094 9.47266 0 0 0
72 3 13.6081 7.36875 9.87659 0 0 0
95 5 14.5873 8.13756 9.5442 0 0 0
106 5 14.6028 9.77215 9.77784 0 0 0
92 5 13.8731 6.27662 9.89286 0 0 0
64 6 -0.217994 3.50513 -0.295481 0 0 0
79 3 14.5068 9.6208 10.91 0 0 0
74 3 14.3923 8.17454 10.6033 0 0 0
105 5 15.4484 10.0468 11.1047 0 0 0
96 5 15.2535 7.65968 10.5734 0 0 0
89 5 11.885 8.34835 10.2276 0 0 0
91 5 14.13 6.83947 10.6423 0 0 0
71 3 12.2593 7.60672 10.2414 0 0 0
94 5 11.193 7.95923 10.0769 0 0 0
90 5 12.2591 6.61588 10.1324 0 0 0
62 7 -8.23731 -8.32591 8.15617 0 0 0
61 6 -7.17931 -8.45215 7.34397 0 0 0
60 6 -5.97474 -8.11808 7.61809 0 0 0
59 6 -6.07264 -5.54888 7.63949 0 0 0
58 6 -7.33919 -5.5537 7.36034 0 0 0
57 6 -5.87884 -7.1763 5.94605 0 0 0
56 6 -4.68067 -6.94381 5.77953 0 0 0
55 6 -5.23943 -4.26807 5.00792 0 0 0
54 6 -5.67235 -4.2939 6.22602 0 0 0
53 6 -4.49597 -5.80526 4.45474 0 0 0
52 6 -3.27746 -5.70163 4.13637 0 0 0
51 6 -3.81896 -3.00247 3.42191 0 0 0
50 6 -4.12682 -2.91446 4.72194 0 0 0
49 6 -3.04965 -4.49974 2.85867 0 0 0
48 6 -1.88266 -4.39675 2.55571 0 0 0
47 6 -2.4469 -1.63863 2.01612 0 0 0
46 6 -2.67604 -1.69068 3.16221 0 0 0
45 6 -0.866649 -3.38217 1.49984 0 0 0
44 6 -0.509005 -2.98105 0.809745 0 0 0
43 6 -0.785408 -0.293286 0.686124 0 0 0
42 6 -1.21127 -0.541321 1.37479 0 0 0
26 5 -8.1609 -7.07225 7.72205 0 0 0
25 1 -6.63953 -7.49534 7.80817 0 0 0
24 1 -6.56278 -6.26666 7.04995 0 0 0
23 1 -5.27605 -6.30202 6.33729 0 0 0
22 1 -4.87135 -4.91231 5.83191 0 0 0
21 1 -3.79036 -5.0149 4.78061 0 0 0
20 1 -3.44215 -3.6155 4.25673 0 0 0
19 1 -2.34556 -3.7097 3.22512 0 0 0
18 1 -1.91602 -2.3095 2.68624 0 0 0
17 1 -1.34949 -2.48237 1.25258 0 0 0
16 1 -0.556032 -1.24919 0.884342 0 0 0
76 3 10.0006 12.4459 9.9588 0 0 0
116 5 14.2824 12.3664 10.2023 0 0 0
113 5 15.4632 11.0926 10.6749 0 0 0
112 5 12.1856 10.7842 10.9747 0 0 0
111 5 11.705 10.8285 11.1175 0 0 0
82 3 11.9921 11.2007 10.1894 0 0 0
104 5 11.8402 12.1365 11.7414 0 0 0
103 5 11.9618 13.537 10.7648 0 0 0
85 4 13.4441 11.5649 10.1398 0 0 0
83 4 14.4522 10.795 10.5133 0 0 0
78 3 11.4519 12.496 10.6757 0 0 0
ITEM: TIMESTEP
50
ITEM: NUMBER OF ATOMS
122
ITEM: BOX BOUNDS pp pp pp
0.0000000000000000e+00 2.0000000000000000e+01
0.0000000000000000e+00 2.0000000000000000e+01
0.0000000000000000e+00 2.0000000000000000e+01
ITEM: ATOMS id type xu yu zu vx vy vz
69 1 4.87788 8.27395 9.77912 0 0 0
122 6 4.55574 9.11192 9.64087 0 0 0
118 5 5.66818 6.40998 8.94851 0 0 0
117 5 6.01074 7.53535 7.94254 0 0 0
70 2 6.56582 9.63825 9.01755 0 0 0
108 5 8.00971 6.25214 10.0734 0 0 0
86 3 6.49989 7.2765 8.96645 0 0 0
75 3 9.45699 8.02991 9.29387 0 0 0
98 5 9.42531 9.11064 9.54262 0 0 0
97 5 9.17872 8.04197 8.23319 0 0 0
88 4 6.13952 8.56658 9.51912 0 0 0
80 3 8.00436 7.34565 9.78889 0 0 0
1 1 6.62495 6.20193 -7.3949 0 0 0
68 6 5.37073 7.12947 -6.21938 0 0 0
67 6 5.53232 5.29932 -6.85152 0 0 0
66 6 3.73052 2.66608 -3.74459 0 0 0
65 6 1.83922 3.0268 -3.69488 0 0 0
40 6 2.8266 1.90147 -2.59901 0 0 0
39 6 2.49169 7.14704 -3.47846 0 0 0
38 6 4.02857 6.94623 -4.81263 0 0 0
37 6 5.4896 3.26096 -5.96662 0 0 0
36 6 6.72178 4.06242 -6.66227 0 0 0
35 6 7.67744 4.19219 -7.29332 0 0 0
34 6 6.4687 4.65751 -8.14817 0 0 0
33 6 7.05058 7.21035 -7.2599 0 0 0
32 6 7.5159 5.51919 -7.38967 0 0 0
31 1 5.84453 6.12912 -6.16916 0 0 0
30 3 3.66585 3.64925 -3.83014 0 0 0
29 3 2.42103 3.889 -3.62105 0 0 0
28 3 0.490346 2.88682 -0.796978 0 0 0
27 3 0.333467 1.54682 -0.575929 0 0 0
14 3 1.10296 0.512086 -1.21174 0 0 0
13 3 2.02143 1.01387 -2.2535 0 0 0
12 3 2.33454 2.15394 -1.88298 0 0 0
11 3 1.54608 3.26601 -1.54252 0 0 0
10 4 0.92147 5.50653 -1.30986 0 0 0
9 3 1.56909 4.63164 -1.89343 0 0 0
8 3 2.28214 5.04209 -2.95454 0 0 0
7 3 2.76201 6.20738 -3.53752 0 0 0
6 3 3.78486 6.0598 -4.37342 0 0 0
5 3 4.39432 4.80015 -4.39438 0 0 0
4 2 5.67169 5.06297 -5.07169 0 0 0
3 1 5.70365 4.2747 -6.27746 0 0 0
2 1 6.75212 4.80085 -7.18503 0 0 0
41 6 2.78021 1.11324 -3.13518 0 0 0
107 5 7.99303 7.93628 10.7593 0 0 0
121 5 4.62152 11.2172 9.09841 0 0 0
120 5 4.3992 12.5111 8.92622 0 0 0
100 5 9.71243 12.0454 9.16495 0 0 0
84 3 6.49772 12.2533 9.60387 0 0 0
114 5 6.61012 12.1457 8.51232 0 0 0
87 3 5.0039 11.9964 9.58662 0 0 0
101 5 9.22597 14.6319 9.85354 0 0 0
110 5 7.91148 14.3471 9.563 0 0 0
115 5 6.14174 11.5116 10.3896 0 0 0
15 5 0.819658 -1.10446 -0.408597 0 0 0
119 5 4.63166 11.9783 10.6016 0 0 0
109 5 6.6686 14.4016 10.3707 0 0 0
99 5 8.90735 11.7183 10.5772 0 0 0
102 5 9.1626 14.2064 11.5823 0 0 0
77 3 8.97641 13.733 10.5355 0 0 0
76 3 9.7427 12.329 10.235 0 0 0
81 3 7.39811 13.5828 10.1837 0 0 0
63 6 -0.410904 1.4562 0.132525 0 0 0
93 5 11.0218 6.15158 9.70459 0 0 0
73 3 10.9137 7.30818 9.72041 0 0 0
92 5 13.9487 6.81787 9.68204 0 0 0
95 5 15.4349 7.67219 9.25041 0 0 0
106 5 16.1814 9.96415 10.1673 0 0 0
89 5 12.7585 8.45451 8.9406 0 0 0
64 6 -0.157041 3.54104 -0.36362 0 0 0
79 3 15.3444 9.69793 10.81 0 0 0
74 3 15.1052 8.15321 10.2564 0 0 0
90 5 12.6564 7.87005 10.7063 0 0 0
96 5 15.5897 7.3773 10.883 0 0 0
94 5 10.8319 7.1588 10.7853 0 0 0
91 5 13.5405 7.93349 11.1886 0 0 0
71 3 12.2434 8.20407 9.77156 0 0 0
72 3 13.6514 7.79813 10.159 0 0 0
62 7 -7.88368 -8.04009 8.34729 0 0 0
61 6 -7.4593 -8.64089 6.6855 0 0 0
60 6 -6.14014 -8.02329 7.97572 0 0 0
59 6 -5.83067 -6.29236 8.29846 0 0 0
58 6 -7.28362 -5.74287 7.11317 0 0 0
57 6 -6.24862 -7.15793 5.79951 0 0 0
56 6 -4.43708 -6.91155 6.13131 0 0 0
55 6 -4.98992 -4.40882 4.48174 0 0 0
54 6 -5.46018 -4.38806 6.50052 0 0 0
53 6 -4.63707 -5.80572 4.79359 0 0 0
52 6 -3.20323 -5.67103 4.13798 0 0 0
51 6 -3.63153 -3.17912 3.06884 0 0 0
50 6 -4.01831 -2.95149 5.01452 0 0 0
49 6 -3.61256 -4.19595 3.1883 0 0 0
48 6 -1.92538 -4.51494 2.72875 0 0 0
47 6 -2.3145 -1.60823 1.90413 0 0 0
46 6 -2.6147 -1.73125 3.32408 0 0 0
45 6 -0.768751 -3.3065 1.89254 0 0 0
44 6 -0.532419 -3.04337 0.65289 0 0 0
43 6 -1.01097 -0.52802 0.161378 0 0 0
42 6 -0.823929 -0.463074 1.71155 0 0 0
26 5 -7.8178 -6.8449 7.75478 0 0 0
25 1 -6.62517 -7.81659 7.08569 0 0 0
24 1 -6.29881 -6.32124 7.25188 0 0 0
23 1 -5.41664 -6.40484 6.02904 0 0 0
22 1 -5.12311 -4.92984 5.5379 0 0 0
21 1 -3.75533 -5.06539 4.90332 0 0 0
20 1 -3.67967 -3.63591 4.19601 0 0 0
19 1 -2.48946 -3.75499 3.31326 0 0 0
18 1 -1.97094 -2.37614 2.68949 0 0 0
17 1 -1.2511 -2.50523 1.27641 0 0 0
16 1 -0.539307 -1.14275 0.905025 0 0 0
85 4 13.1185 10.5897 9.6533 0 0 0
116 5 13.5484 11.1578 9.97622 0 0 0
113 5 15.1868 11.3378 9.98886 0 0 0
112 5 12.5918 10.4792 10.7416 0 0 0
111 5 11.706 10.3704 11.1092 0 0 0
82 3 11.8339 10.6712 10.1869 0 0 0
104 5 11.6554 12.3022 11.978 0 0 0
103 5 11.6216 13.133 10.6346 0 0 0
105 5 15.5973 10.3846 11.8016 0 0 0
83 4 14.4373 10.5136 10.1148 0 0 0
78 3 11.2755 12.1029 10.8167 0 0 0
ITEM: TIMESTEP
75
ITEM: NUMBER OF ATOMS
122
ITEM: BOX BOUNDS pp pp pp
0.0000000000000000e+00 2.0000000000000000e+01
0.0000000000000000e+00 2.0000000000000000e+01
0.0000000000000000e+00 2.0000000000000000e+01
ITEM: ATOMS id type xu yu zu vx vy vz
69 1 5.17545 8.79705 9.8068 0 0 0
122 6 5.02501 9.67793 10.0286 0 0 0
118 5 5.68335 6.64245 8.84496 0 0 0
117 5 6.43118 7.0887 7.54863 0 0 0
70 2 6.8641 9.99025 8.83024 0 0 0
80 3 7.98273 7.22612 9.59409 0 0 0
86 3 6.59029 7.3962 8.67165 0 0 0
75 3 9.51126 8.20049 9.2781 0 0 0
98 5 9.41217 9.14329 9.72807 0 0 0
97 5 9.57914 9.13314 8.53912 0 0 0
88 4 6.29561 8.87902 9.09977 0 0 0
1 1 6.90695 6.04406 -6.7434 0 0 0
68 6 5.20535 6.8584 -6.17114 0 0 0
67 6 5.52731 5.04563 -6.83667 0 0 0
66 6 3.43639 2.59632 -3.61623 0 0 0
65 6 1.46197 2.8608 -3.42532 0 0 0
40 6 3.62506 2.71489 -1.92901 0 0 0
39 6 2.47148 7.0922 -3.55347 0 0 0
38 6 4.05522 6.77256 -4.60934 0 0 0
37 6 5.49433 3.03019 -6.15168 0 0 0
36 6 6.78169 4.12935 -6.00106 0 0 0
35 6 7.62384 4.26229 -7.30809 0 0 0
34 6 6.26716 4.70341 -8.35436 0 0 0
33 6 7.18497 7.0686 -7.105 0 0 0
32 6 7.74887 5.47953 -6.4905 0 0 0
31 1 5.63759 5.83302 -6.05175 0 0 0
30 3 3.2794 3.46933 -3.86304 0 0 0
29 3 2.04332 3.72126 -3.64025 0 0 0
28 3 0.569147 2.97006 -0.780734 0 0 0
27 3 0.420511 1.62807 -0.760174 0 0 0
14 3 1.21635 0.713749 -1.45236 0 0 0
13 3 2.26895 1.3057 -2.29582 0 0 0
12 3 2.71333 2.40362 -1.63348 0 0 0
11 3 1.72071 3.44846 -1.34029 0 0 0
10 4 0.93867 5.68778 -1.25985 0 0 0
9 3 1.61113 4.73277 -1.81726 0 0 0
8 3 1.99586 4.94498 -3.06335 0 0 0
7 3 2.57898 6.11685 -3.6436 0 0 0
6 3 3.67227 5.86228 -4.30379 0 0 0
5 3 4.17919 4.61994 -4.33441 0 0 0
4 2 5.4536 4.80628 -4.91247 0 0 0
3 1 5.76564 4.0941 -6.1842 0 0 0
2 1 6.61221 4.71769 -7.36196 0 0 0
41 6 2.42482 1.30513 -3.37122 0 0 0
107 5 7.69952 7.41961 10.6508 0 0 0
108 5 7.84345 6.11676 10.0155 0 0 0
121 5 4.75032 11.3715 8.63354 0 0 0
120 5 4.49548 12.3863 8.95134 0 0 0
100 5 9.67898 12.1948 9.1965 0 0 0
84 3 6.46358 12.3404 9.60229 0 0 0
114 5 6.33409 12.5132 8.52183 0 0 0
87 3 5.04756 11.8554 9.55901 0 0 0
101 5 9.12165 14.5636 9.9117 0 0 0
110 5 7.65149 14.2804 9.43474 0 0 0
115 5 6.05069 11.6345 10.3565 0 0 0
15 5 0.949006 -0.905807 -0.605171 0 0 0
119 5 4.437 12.003 10.5054 0 0 0
109 5 6.58064 14.4173 10.6104 0 0 0
99 5 8.81594 11.7251 10.5849 0 0 0
102 5 9.23007 14.4009 11.6145 0 0 0
77 3 8.88569 13.7576 10.662 0 0 0
76 3 9.62747 12.3289 10.2807 0 0 0
81 3 7.29208 13.6392 10.2395 0 0 0
71 3 12.3634 8.09104 9.57682 0 0 0
93 5 10.9473 6.38953 9.20153 0 0 0
73 3 10.9227 7.3861 9.74907 0 0 0
92 5 13.944 7.03777 9.97444 0 0 0
95 5 15.7723 7.69505 9.44563 0 0 0
89 5 13.0066 8.08239 8.77189 0 0 0
64 6 -0.164704 3.56421 -0.362612 0 0 0
79 3 15.4554 9.95499 10.7572 0 0 0
74 3 15.3153 8.30416 10.3446 0 0 0
90 5 12.7947 7.86658 10.5157 0 0 0
96 5 15.7561 7.55819 11.0571 0 0 0
94 5 10.7792 6.79346 10.7615 0 0 0
91 5 13.3746 8.07347 11.2354 0 0 0
72 3 13.7639 8.0153 10.2805 0 0 0
63 6 -0.30877 1.33113 -0.113598 0 0 0
62 7 -7.77542 -7.91718 8.43145 0 0 0
61 6 -7.44264 -8.73786 6.61278 0 0 0
60 6 -6.87552 -8.03658 8.43379 0 0 0
59 6 -5.62922 -6.48309 8.05828 0 0 0
58 6 -7.18081 -5.95693 7.14957 0 0 0
57 6 -6.38791 -7.08502 5.5551 0 0 0
56 6 -4.61411 -7.12411 6.40457 0 0 0
55 6 -5.05439 -4.39873 4.38701 0 0 0
54 6 -5.35782 -4.59316 6.47704 0 0 0
53 6 -4.22479 -6.03815 5.13507 0 0 0
52 6 -3.30901 -5.4719 3.98211 0 0 0
51 6 -3.43353 -3.17172 3.30529 0 0 0
50 6 -4.06433 -3.00807 5.07942 0 0 0
49 6 -3.92217 -4.06669 2.9862 0 0 0
48 6 -1.91034 -4.42652 2.79379 0 0 0
47 6 -2.21048 -1.47873 1.88254 0 0 0
46 6 -2.49851 -1.66212 3.40717 0 0 0
45 6 -0.454728 -3.21042 2.23992 0 0 0
44 6 -1.08316 -3.22844 0.651688 0 0 0
43 6 -1.18601 -0.618913 0.107286 0 0 0
42 6 -0.444518 -0.600227 1.66782 0 0 0
26 5 -7.81578 -6.80439 7.64489 0 0 0
25 1 -6.74405 -8.00967 7.29708 0 0 0
24 1 -6.2329 -6.57985 7.15507 0 0 0
23 1 -5.44617 -6.52203 5.89544 0 0 0
22 1 -5.04803 -4.99829 5.4326 0 0 0
21 1 -3.58281 -5.16333 5.01144 0 0 0
20 1 -3.51452 -3.70822 4.40257 0 0 0
19 1 -2.77539 -3.7504 3.08091 0 0 0
18 1 -2.14165 -2.34611 2.60394 0 0 0
17 1 -0.981354 -2.54396 1.51486 0 0 0
16 1 -0.448218 -1.16284 0.740303 0 0 0
85 4 12.9919 10.3652 9.39493 0 0 0
113 5 15.2309 10.9652 9.1197 0 0 0
83 4 14.4451 10.3937 9.66262 0 0 0
82 3 11.6991 10.5024 9.95156 0 0 0
78 3 11.093 11.8486 10.7658 0 0 0
106 5 16.4376 10.3733 10.4603 0 0 0
112 5 12.6053 10.5705 10.2103 0 0 0
111 5 11.7728 10.3925 10.9191 0 0 0
105 5 15.4629 10.6319 11.7852 0 0 0
104 5 11.3658 12.0446 11.9696 0 0 0
103 5 11.4425 12.8245 10.5272 0 0 0
116 5 13.1243 10.5914 10.1809 0 0 0
ITEM: TIMESTEP
100
ITEM: NUMBER OF ATOMS
122
ITEM: BOX BOUNDS pp pp pp
0.0000000000000000e+00 2.0000000000000000e+01
0.0000000000000000e+00 2.0000000000000000e+01
0.0000000000000000e+00 2.0000000000000000e+01
ITEM: ATOMS id type xu yu zu vx vy vz
69 1 5.37735 8.90985 9.78358 0 0 0
97 5 9.66687 9.31389 8.76689 0 0 0
118 5 5.82202 6.79736 8.52776 0 0 0
117 5 6.79587 7.16856 7.36153 0 0 0
88 4 6.42208 9.00931 8.98478 0 0 0
80 3 8.01445 7.24759 9.57868 0 0 0
86 3 6.76655 7.52139 8.49307 0 0 0
75 3 9.56054 8.30749 9.3977 0 0 0
98 5 9.38255 9.1436 10.0276 0 0 0
108 5 7.88007 6.09981 9.85055 0 0 0
1 1 7.02071 5.88915 -6.44211 0 0 0
68 6 5.0776 6.57435 -6.15989 0 0 0
67 6 5.57447 4.91382 -6.68044 0 0 0
66 6 3.31168 2.64677 -3.63387 0 0 0
65 6 1.22413 2.78878 -3.15136 0 0 0
40 6 3.78796 3.03534 -2.01762 0 0 0
39 6 2.30075 7.03285 -3.6905 0 0 0
38 6 4.06685 6.62481 -4.46995 0 0 0
37 6 5.57059 2.89457 -6.21159 0 0 0
36 6 6.74733 4.11316 -5.66504 0 0 0
35 6 7.59232 4.13013 -7.43143 0 0 0
34 6 6.30921 5.08016 -8.22483 0 0 0
33 6 7.10563 6.88114 -6.97986 0 0 0
32 6 7.8481 5.44021 -5.90967 0 0 0
31 1 5.65143 5.66222 -5.88723 0 0 0
30 3 3.00402 3.45514 -3.95725 0 0 0
29 3 1.74382 3.61928 -3.53692 0 0 0
28 3 0.704208 3.04328 -0.749437 0 0 0
27 3 0.474786 1.6961 -0.841834 0 0 0
14 3 1.35578 0.800823 -1.41208 0 0 0
13 3 2.43365 1.38566 -2.15132 0 0 0
12 3 2.9346 2.59815 -1.57804 0 0 0
11 3 1.91509 3.53302 -1.21763 0 0 0
10 4 1.05904 5.75472 -1.17332 0 0 0
9 3 1.68028 4.83086 -1.72843 0 0 0
8 3 1.78556 4.92708 -3.08569 0 0 0
7 3 2.37668 6.03382 -3.72397 0 0 0
6 3 3.54527 5.77648 -4.27477 0 0 0
5 3 3.92689 4.46007 -4.33644 0 0 0
4 2 5.2815 4.59597 -4.84011 0 0 0
3 1 5.78929 3.97639 -6.10876 0 0 0
2 1 6.65908 4.69404 -7.26172 0 0 0
41 6 2.37117 1.3408 -3.2318 0 0 0
107 5 7.58208 7.05936 10.6622 0 0 0
122 6 5.30987 9.79228 10.0591 0 0 0
121 5 4.72963 11.3465 8.53475 0 0 0
120 5 4.64027 12.35 8.76863 0 0 0
100 5 9.61591 12.3063 9.21872 0 0 0
84 3 6.46559 12.4396 9.53375 0 0 0
114 5 6.17195 12.7423 8.52701 0 0 0
87 3 5.07028 11.8455 9.45041 0 0 0
101 5 9.07838 14.6105 9.91062 0 0 0
110 5 7.5514 14.3804 9.47824 0 0 0
70 2 6.91962 10.1746 8.88042 0 0 0
115 5 5.99073 11.8762 10.33 0 0 0
15 5 1.00793 -0.871474 -0.640093 0 0 0
119 5 4.36378 12.0927 10.2949 0 0 0
109 5 6.53732 14.4241 10.7437 0 0 0
99 5 8.76385 11.8079 10.6298 0 0 0
102 5 9.22258 14.4866 11.6062 0 0 0
77 3 8.85109 13.8185 10.6759 0 0 0
76 3 9.57354 12.3752 10.2963 0 0 0
81 3 7.25117 13.7038 10.2637 0 0 0
71 3 12.4755 8.02115 9.50058 0 0 0
93 5 10.9416 6.52898 8.94498 0 0 0
73 3 10.9627 7.40047 9.66185 0 0 0
89 5 13.1195 7.99434 8.71507 0 0 0
95 5 15.8944 7.69103 9.68305 0 0 0
64 6 -0.058661 3.62105 -0.3824 0 0 0
63 6 -0.359575 1.35382 -0.375022 0 0 0
74 3 15.351 8.41361 10.4595 0 0 0
90 5 12.8605 7.7615 10.4169 0 0 0
96 5 15.8058 7.80913 11.2836 0 0 0
94 5 10.8255 6.68759 10.5805 0 0 0
91 5 13.4066 8.0004 11.2108 0 0 0
72 3 13.8227 7.98709 10.2899 0 0 0
92 5 14.0432 6.98617 10.0508 0 0 0
62 7 -7.74885 -7.85204 8.47643 0 0 0
61 6 -7.3684 -8.74062 6.57075 0 0 0
60 6 -7.00122 -8.01983 8.4605 0 0 0
59 6 -5.1852 -6.31109 7.50333 0 0 0
58 6 -7.06747 -5.96133 7.12286 0 0 0
57 6 -6.65659 -6.96186 5.2491 0 0 0
56 6 -4.81102 -7.28004 5.82462 0 0 0
55 6 -5.22854 -4.55778 4.22948 0 0 0
54 6 -5.28027 -4.84348 6.3334 0 0 0
53 6 -3.68172 -5.88198 6.15745 0 0 0
52 6 -3.38993 -5.57144 3.95943 0 0 0
51 6 -2.67767 -3.09783 3.84066 0 0 0
50 6 -4.2089 -3.27296 5.03398 0 0 0
49 6 -4.11845 -4.16618 2.92934 0 0 0
48 6 -2.08797 -4.23491 2.7404 0 0 0
47 6 -2.43453 -1.4161 1.78893 0 0 0
46 6 -1.96707 -1.5895 3.45749 0 0 0
45 6 -0.487915 -3.19203 2.4091 0 0 0
44 6 -1.28461 -3.21616 0.760756 0 0 0
43 6 -1.11055 -0.734912 0.0941502 0 0 0
42 6 -0.393379 -0.611776 1.59916 0 0 0
26 5 -7.92241 -6.80666 7.59891 0 0 0
25 1 -6.80262 -7.97415 7.32144 0 0 0
24 1 -6.13942 -6.61304 6.99589 0 0 0
23 1 -5.64708 -6.59937 5.59559 0 0 0
22 1 -5.07332 -5.17153 5.23631 0 0 0
21 1 -3.58193 -5.23561 5.04594 0 0 0
20 1 -3.23231 -3.69593 4.66498 0 0 0
19 1 -3.03798 -3.68904 3.09238 0 0 0
18 1 -2.24188 -2.24542 2.55486 0 0 0
17 1 -1.00138 -2.56784 1.59868 0 0 0
16 1 -0.372138 -1.23426 0.734036 0 0 0
85 4 12.8512 10.2306 9.28943 0 0 0
113 5 15.0416 10.4467 8.6722 0 0 0
83 4 14.3203 10.268 9.48715 0 0 0
82 3 11.6828 10.4375 9.9491 0 0 0
78 3 10.9942 11.7646 10.7652 0 0 0
106 5 16.2777 10.6304 10.488 0 0 0
112 5 12.5605 10.428 10.1784 0 0 0
111 5 11.8813 10.3102 10.8789 0 0 0
105 5 15.1824 10.8611 11.6948 0 0 0
104 5 11.1887 11.8965 11.9782 0 0 0
103 5 11.315 12.7483 10.5441 0 0 0
116 5 12.9184 10.4402 10.1125 0 0 0
79 3 15.3231 10.1192 10.7102 0 0 0
ITEM: TIMESTEP
125
ITEM: NUMBER OF ATOMS
122
ITEM: BOX BOUNDS pp pp pp
0.0000000000000000e+00 2.0000000000000000e+01
0.0000000000000000e+00 2.0000000000000000e+01
0.0000000000000000e+00 2.0000000000000000e+01
ITEM: ATOMS id type xu yu zu vx vy vz
69 1 5.5879 8.9856 9.83287 0 0 0
97 5 9.63261 9.33409 8.83392 0 0 0
118 5 5.99378 6.83996 8.32341 0 0 0
117 5 7.08063 7.28424 7.28981 0 0 0
88 4 6.51571 9.08449 8.91637 0 0 0
80 3 8.04512 7.25957 9.61937 0 0 0
86 3 6.91383 7.593 8.42237 0 0 0
75 3 9.57387 8.33393 9.47245 0 0 0
108 5 7.91658 6.0986 9.78084 0 0 0
1 1 7.00218 5.79775 -6.24481 0 0 0
68 6 4.9608 6.38863 -6.10686 0 0 0
67 6 5.5923 4.79528 -6.53777 0 0 0
66 6 3.05669 2.63778 -3.69933 0 0 0
65 6 1.16378 2.6884 -3.01183 0 0 0
40 6 3.8785 3.10409 -2.21642 0 0 0
39 6 2.0413 6.94947 -3.87633 0 0 0
38 6 3.98805 6.54659 -4.37106 0 0 0
37 6 5.62993 2.78024 -6.15755 0 0 0
36 6 6.6826 4.01824 -5.42009 0 0 0
35 6 7.58896 4.09376 -7.39788 0 0 0
34 6 6.31526 5.155 -8.05248 0 0 0
33 6 7.15677 6.76596 -6.81972 0 0 0
32 6 7.78666 5.34562 -5.6491 0 0 0
31 1 5.59231 5.54959 -5.75246 0 0 0
30 3 2.77387 3.43868 -3.9995 0 0 0
29 3 1.5611 3.55905 -3.46295 0 0 0
28 3 0.844668 3.10239 -0.692155 0 0 0
27 3 0.542772 1.76568 -0.836264 0 0 0
14 3 1.45141 0.846841 -1.30775 0 0 0
13 3 2.54346 1.4249 -2.04415 0 0 0
12 3 3.08176 2.68696 -1.62275 0 0 0
11 3 2.05934 3.5901 -1.19495 0 0 0
10 4 1.2671 5.82997 -1.08832 0 0 0
9 3 1.76146 4.87066 -1.71003 0 0 0
8 3 1.60914 4.89152 -3.07451 0 0 0
7 3 2.18537 5.96023 -3.79963 0 0 0
6 3 3.41707 5.71613 -4.2253 0 0 0
5 3 3.76423 4.39915 -4.31936 0 0 0
4 2 5.14816 4.45695 -4.75608 0 0 0
3 1 5.79097 3.86984 -5.99424 0 0 0
2 1 6.66561 4.64671 -7.13256 0 0 0
41 6 2.4367 1.31353 -3.09724 0 0 0
107 5 7.59275 6.96143 10.7129 0 0 0
122 6 5.58466 9.89082 10.0409 0 0 0
98 5 9.3747 9.14453 10.1481 0 0 0
121 5 4.54378 11.2966 8.61149 0 0 0
120 5 5.12273 12.1243 8.43375 0 0 0
100 5 9.57391 12.3417 9.23548 0 0 0
84 3 6.45765 12.518 9.48824 0 0 0
114 5 6.1013 12.9375 8.55426 0 0 0
87 3 5.06077 11.8632 9.3974 0 0 0
101 5 9.08865 14.6236 9.90349 0 0 0
110 5 7.53526 14.4727 9.55576 0 0 0
70 2 6.87975 10.2979 8.79979 0 0 0
115 5 5.96144 12.0268 10.2848 0 0 0
15 5 1.03071 -0.841427 -0.558851 0 0 0
119 5 4.26927 12.2737 10.0632 0 0 0
109 5 6.52346 14.4251 10.8193 0 0 0
99 5 8.71733 11.8375 10.6595 0 0 0
102 5 9.22882 14.5303 11.5968 0 0 0
77 3 8.84449 13.8494 10.6814 0 0 0
76 3 9.53885 12.3915 10.3153 0 0 0
81 3 7.24073 13.7421 10.2894 0 0 0
71 3 12.4956 7.93666 9.48389 0 0 0
93 5 10.9269 6.62661 8.77937 0 0 0
73 3 10.9749 7.38589 9.61354 0 0 0
89 5 13.1255 7.88364 8.7174 0 0 0
95 5 15.9307 7.71289 9.89648 0 0 0
64 6 0.0884536 3.69716 -0.336182 0 0 0
63 6 -0.368609 1.43654 -0.522978 0 0 0
74 3 15.3254 8.50651 10.5557 0 0 0
90 5 12.8701 7.69094 10.401 0 0 0
96 5 15.7557 8.03223 11.4722 0 0 0
94 5 10.8725 6.5645 10.4396 0 0 0
91 5 13.3985 7.94943 11.19 0 0 0
72 3 13.8402 7.96993 10.2951 0 0 0
92 5 14.1166 6.98147 10.0512 0 0 0
62 7 -7.72164 -7.85058 8.5176 0 0 0
61 6 -7.12958 -8.71012 6.47631 0 0 0
60 6 -6.93241 -8.08886 8.40755 0 0 0
59 6 -5.00968 -6.28665 7.21568 0 0 0
58 6 -6.88362 -5.94729 7.14168 0 0 0
57 6 -6.84389 -6.77766 5.03626 0 0 0
56 6 -4.8893 -7.09026 5.21208 0 0 0
55 6 -5.23073 -4.31493 4.20229 0 0 0
54 6 -5.41068 -4.74871 6.19136 0 0 0
53 6 -3.65582 -5.94251 6.11856 0 0 0
52 6 -3.35857 -5.56001 3.99242 0 0 0
51 6 -1.80939 -3.40964 4.17534 0 0 0
50 6 -3.89115 -3.30379 5.0444 0 0 0
49 6 -4.15139 -4.22044 2.8625 0 0 0
48 6 -2.23507 -4.18583 2.63598 0 0 0
47 6 -2.71747 -1.411 1.8406 0 0 0
46 6 -2.29982 -1.83062 3.49294 0 0 0
45 6 -0.650205 -3.12114 2.73541 0 0 0
44 6 -1.27022 -3.25691 0.907886 0 0 0
43 6 -1.10597 -0.817729 0.15825 0 0 0
42 6 -0.355348 -0.590397 1.66735 0 0 0
26 5 -7.90931 -6.86326 7.59366 0 0 0
25 1 -6.69011 -7.93418 7.26112 0 0 0
24 1 -6.01002 -6.59802 6.83446 0 0 0
23 1 -5.77722 -6.45967 5.3436 0 0 0
22 1 -5.11887 -5.04191 5.12324 0 0 0
21 1 -3.59307 -5.24759 5.06079 0 0 0
20 1 -2.96173 -3.81397 4.58628 0 0 0
19 1 -3.12958 -3.66684 3.05201 0 0 0
18 1 -2.41375 -2.28079 2.49836 0 0 0
17 1 -1.03815 -2.57043 1.74306 0 0 0
16 1 -0.356147 -1.25232 0.830273 0 0 0
85 4 12.7252 10.1549 9.20341 0 0 0
113 5 14.9238 10.202 8.51749 0 0 0
83 4 14.2076 10.189 9.38259 0 0 0
82 3 11.6436 10.4133 9.96311 0 0 0
78 3 10.953 11.7474 10.7829 0 0 0
106 5 16.0913 10.8207 10.4182 0 0 0
112 5 12.5052 10.36 10.1253 0 0 0
111 5 11.923 10.2783 10.8694 0 0 0
105 5 14.9894 11.0015 11.5969 0 0 0
104 5 11.0987 11.8299 12.0014 0 0 0
103 5 11.3092 12.7326 10.5974 0 0 0
116 5 12.7568 10.362 10.0436 0 0 0
79 3 15.1994 10.2217 10.6501 0 0 0
ITEM: TIMESTEP
150
ITEM: NUMBER OF ATOMS
122
ITEM: BOX BOUNDS pp pp pp
0.0000000000000000e+00 2.0000000000000000e+01
0.0000000000000000e+00 2.0000000000000000e+01
0.0000000000000000e+00 2.0000000000000000e+01
ITEM: ATOMS id type xu yu zu vx vy vz
69 1 5.77925 9.07559 9.86883 0 0 0
97 5 9.59236 9.33706 8.87092 0 0 0
118 5 6.14329 6.82902 8.21666 0 0 0
117 5 7.29557 7.32341 7.2706 0 0 0
88 4 6.62047 9.0879 8.8852 0 0 0
80 3 8.07582 7.25424 9.6617 0 0 0
86 3 7.03383 7.59932 8.39349 0 0 0
75 3 9.5753 8.34281 9.51454 0 0 0
108 5 7.95017 6.09376 9.7533 0 0 0
1 1 6.92799 5.69355 -6.03629 0 0 0
68 6 4.84327 6.21517 -6.02114 0 0 0
67 6 5.5682 4.66182 -6.34977 0 0 0
66 6 2.7087 2.64247 -3.74376 0 0 0
65 6 1.15195 2.59049 -2.91764 0 0 0
40 6 3.92891 3.03737 -2.48925 0 0 0
39 6 1.67005 6.78343 -4.15171 0 0 0
38 6 3.83485 6.50885 -4.30011 0 0 0
37 6 5.61565 2.65453 -5.98821 0 0 0
36 6 6.56063 3.90562 -5.12689 0 0 0
35 6 7.55822 4.03187 -7.22152 0 0 0
34 6 6.27824 5.08787 -7.8501 0 0 0
33 6 7.13896 6.62872 -6.65613 0 0 0
32 6 7.68667 5.20831 -5.43238 0 0 0
31 1 5.49409 5.4326 -5.58772 0 0 0
30 3 2.53297 3.43807 -4.03162 0 0 0
29 3 1.39022 3.50705 -3.3916 0 0 0
28 3 1.03671 3.17072 -0.626648 0 0 0
27 3 0.655821 1.85076 -0.76099 0 0 0
14 3 1.53557 0.898882 -1.21439 0 0 0
13 3 2.64379 1.43784 -1.98228 0 0 0
12 3 3.21824 2.71208 -1.73736 0 0 0
11 3 2.23172 3.61753 -1.22507 0 0 0
10 4 1.61492 5.89173 -1.07145 0 0 0
9 3 1.88738 4.87753 -1.74098 0 0 0
8 3 1.4392 4.85138 -3.04451 0 0 0
7 3 1.96414 5.8682 -3.87324 0 0 0
6 3 3.25021 5.68086 -4.17504 0 0 0
5 3 3.57863 4.35711 -4.29394 0 0 0
4 2 4.98805 4.33559 -4.61744 0 0 0
3 1 5.73591 3.74778 -5.79794 0 0 0
2 1 6.61806 4.55035 -6.93398 0 0 0
41 6 2.60136 1.20007 -2.98712 0 0 0
107 5 7.62112 6.91081 10.7683 0 0 0
122 6 5.89901 10.0095 9.91212 0 0 0
98 5 9.34946 9.15873 10.1932 0 0 0
121 5 4.5411 11.2596 8.63431 0 0 0
120 5 5.24658 11.9869 8.277 0 0 0
100 5 9.55444 12.3717 9.22762 0 0 0
84 3 6.48744 12.5569 9.42034 0 0 0
114 5 6.11013 13.0614 8.55038 0 0 0
87 3 5.07075 11.9355 9.29181 0 0 0
101 5 9.12241 14.6197 9.88278 0 0 0
110 5 7.50943 14.5249 9.6091 0 0 0
70 2 6.95747 10.3113 8.83677 0 0 0
115 5 5.97207 12.1424 10.223 0 0 0
15 5 1.03963 -0.7771 -0.454963 0 0 0
119 5 4.2565 12.5766 9.67579 0 0 0
109 5 6.55433 14.3881 10.9105 0 0 0