LAMMPS (8 Feb 2023)
OMP_NUM_THREADS environment is not set. Defaulting to 1 thread. (src/comm.cpp:98)
  using 1 OpenMP thread(s) per MPI task
# define variables

variable       spacing index 10.0
variable       lbox index 20.0
variable       sname string combined_mc
variable       rtemp index 300

units           real
atom_style      full
boundary        p p p
#pair_style      lj/cut/coul/long  14
pair_style      lj/charmm/coul/long/opt 9 10.00000
#pair_modify     mix arithmetic tail yes
#special_bonds   lj/coul 0.0 0.0 1.0
#kspace_style    ewald 0.0001
bond_style      harmonic
angle_style     harmonic
dihedral_style  harmonic
improper_style  umbrella
kspace_style    pppm 0.0001

# initialize a simple cumbic box for the initial structure

lattice        sc ${spacing}
lattice        sc 10.0
Lattice spacing in x,y,z = 10 10 10
region         mybox block 0 ${lbox} 0 ${lbox} 0 ${lbox} units box
region         mybox block 0 20.0 0 ${lbox} 0 ${lbox} units box
region         mybox block 0 20.0 0 20.0 0 ${lbox} units box
region         mybox block 0 20.0 0 20.0 0 20.0 units box
create_box     8 mybox                bond/types 13                angle/types 5                dihedral/types 11                improper/types 1                extra/bond/per/atom 13                extra/angle/per/atom 10                extra/dihedral/per/atom 20                extra/improper/per/atom 20                extra/special/per/atom 100
Created orthogonal box = (0 0 0) to (20 20 20)
  2 by 2 by 2 MPI processor grid

molecule       xlig xlig.lammps.txt
Read molecule template xlig:
  1 molecules
  0 fragments
  68 atoms with max type 7
  70 bonds with max type 10
  128 angles with max type 4
  188 dihedrals with max type 11
  39 impropers with max type 1
molecule       oleic oleic.lammps.txt
Read molecule template oleic:
  1 molecules
  0 fragments
  54 atoms with max type 6
  53 bonds with max type 13
  100 angles with max type 5
  141 dihedrals with max type 9
  9 impropers with max type 1


pair_modify          mix geometric
#neighbor             2.0 multi
#neigh_modify         every 2 delay 4 check yes
thermo_style         multi
thermo_modify        line multi format float %14.6f flush yes



# originally used box instead of single, which takes no args and auto populates the box until full
create_atoms   0 single 0  0  0   mol xlig 42 units box
Created 68 atoms
  using box units in orthogonal box = (0 0 0) to (20 20 20)
  create_atoms CPU = 0.002 seconds
create_atoms   0 single 10 10 10  mol oleic 42 units box
Created 54 atoms
  using box units in orthogonal box = (0 0 0) to (20 20 20)
  create_atoms CPU = 0.002 seconds

# coeffs
# Masses

mass    1 1.2011E+01 # C_3
mass    2 1.4007E+01 # N_3
mass    3 1.2011E+01 # C_R
mass    4 1.5999E+01 # O_2
mass    5 3.2060E+01 # S_3
mass    6 1.0080E+00 # H_
mass    7 1.0080E+00 # H___A
mass    8 1.5999E+01 # O_R


pair_coeff           1 1 0.09510000 3.47299041 # C_3 C_3
pair_coeff           2 2 0.07740000 3.26256026 # N_3 N_3
pair_coeff           3 3 0.09510000 3.47299041 # C_R C_R
pair_coeff           4 4 0.09570000 3.03315369 # O_2 O_2
pair_coeff           5 5 0.34400001 3.59032202 # S_3 S_3
pair_coeff           6 6 0.01520000 2.84642134 # H_ H_
pair_coeff           7 7 0.01520000 2.84642134 # H___A H___A
pair_coeff           8 8 0.09570000 3.03315369 # O_R O_R


pair_modify          mix geometric
neighbor             2.0 multi
neigh_modify         every 2 delay 4 check yes
thermo_style         multi
WARNING: New thermo_style command, previous thermo_modify settings will be lost (src/output.cpp:896)
thermo_modify        line multi format float %14.6f flush yes

bond_coeff           1 350 1.53000 # C_3 C_3
bond_coeff           2 350 1.09000 # C_3 H_
bond_coeff           3 350 1.46200 # N_3 C_3
bond_coeff           4 350 1.39200 # N_3 C_R
bond_coeff           5 525 1.39000 # C_R C_R
bond_coeff           6 350 1.02000 # C_R H_
bond_coeff           7 700 1.25000 # O_2 C_R
bond_coeff           8 350 1.73000 # S_3 C_R
bond_coeff           9 350 1.80000 # S_3 C_3
bond_coeff           10 350 1.36000 # S_3 H___A
bond_coeff           11 525 1.35000 # O_R C_R
bond_coeff           12 350 0.98000 # O_R H___A
bond_coeff           13 350 1.46000 # C_R C_3


angle_coeff          1 50 109.47100 # X C_3 X
angle_coeff          2 50 106.70000 # X N_3 X
angle_coeff          3 50 120 # X C_R X
angle_coeff          4 50 92.10000 # X S_3 X
angle_coeff          5 50 120 # X O_R X


dihedral_coeff       1 0.08333 -1 6 # C_R C_R C_3 X
dihedral_coeff       2 0.08333 -1 6 # O_2 C_R C_3 X
dihedral_coeff       3 0.08333 -1 6 # O_R C_R C_3 X
dihedral_coeff       4 0.11111 1 3 # X C_3 C_3 X
dihedral_coeff       5 0.16667 1 3 # X C_R C_3 X
dihedral_coeff       6 3.12500 -1 2 # X C_R C_R X
dihedral_coeff       7 0.16667 1 3 # X N_3 C_3 X
dihedral_coeff       8 0.12500 -1 6 # X N_3 C_R C_R
dihedral_coeff       9 6.25000 -1 2 # X O_R C_R X
dihedral_coeff       10 0.33333 1 3 # X S_3 C_3 X
dihedral_coeff       11 0.50000 -1 2 # X S_3 C_R X

improper_coeff       1 13.33333 0 # C_R X X X

timestep             0.5

print                .
.
print                ==========================================
==========================================
print                "500 steps CG Minimization"
500 steps CG Minimization
print                ==========================================
==========================================
print                .
.

dump                 1 all custom 25 ${sname}.min.lammpstrj id type xu yu zu vx vy vz
dump                 1 all custom 25 combined_mc.min.lammpstrj id type xu yu zu vx vy vz
thermo               10
min_style            sd
minimize             1.0e-4 1.0e-4 500 5000

CITE-CITE-CITE-CITE-CITE-CITE-CITE-CITE-CITE-CITE-CITE-CITE-CITE

Your simulation uses code contributions which should be cited:

- neighbor multi command: doi:10.1016/j.cpc.2008.03.005, doi:10.1007/s40571-020-00361-2

@Article{Intveld08,
 author =  {in 't Veld, P. J. and S. J.~Plimpton and G. S. Grest},
 title =   {Accurate and Efficient Methods for Modeling Colloidal
            Mixtures in an Explicit Solvent using Molecular Dynamics},
 journal = {Comput.\ Phys.\ Commut.},
 year =    2008,
 volume =  179,
 pages =   {320--329}
}

@article{Shire2020,
 author = {Shire, Tom and Hanley, Kevin J. and Stratford, Kevin},
 title = {{DEM} Simulations of Polydisperse Media: Efficient Contact
          Detection Applied to Investigate the Quasi-Static Limit},
 journal = {Computational Particle Mechanics},
 year = {2020}
}

CITE-CITE-CITE-CITE-CITE-CITE-CITE-CITE-CITE-CITE-CITE-CITE-CITE

Switching to 'neigh_modify every 1 delay 0 check yes' setting during minimization
PPPM initialization ...
WARNING: System is not charge neutral, net charge = 8.9862 (src/kspace.cpp:327)
  using 12-bit tables for long-range coulomb (src/kspace.cpp:342)
  G vector (1/distance) = 0.27621456
  grid = 12 12 12
  stencil order = 5
  estimated absolute RMS force accuracy = 0.014812192
  estimated relative force accuracy = 4.4606477e-05
  using double precision FFTW3
  3d grid and FFT values/proc = 2197 288
Generated 28 of 28 mixed pair_coeff terms from geometric mixing rule
Neighbor list info ...
  update: every = 1 steps, delay = 0 steps, check = yes
  max neighbors/atom: 2000, page size: 100000
  master list distance cutoff = 12
  ghost atom cutoff = 12
  binsize = 6, bins = 4 4 4
  1 neighbor lists, perpetual/occasional/extra = 1 0 0
  (1) pair lj/charmm/coul/long/opt, perpetual
      attributes: half, newton on
      pair build: half/multi/newton
      stencil: half/multi/3d
      bin: multi
Per MPI rank memory allocation (min/avg/max) = 31.71 | 31.85 | 32.36 Mbytes
------------ Step              0 ----- CPU =            0 (sec) -------------
TotEng   = 3343284.819838 KinEng   =       0.000000 Temp     =       0.000000 
PotEng   = 3343284.819838 E_bond   =    4870.879773 E_angle  =    4040.659321 
E_dihed  =      48.515035 E_impro  =      41.965965 E_vdwl   = 3346186.467778 
E_coul   =  -12851.453383 E_long   =     947.785349 Press    = 114794999.937033
------------ Step             10 ----- CPU =   0.00289922 (sec) -------------
TotEng   =    2879.761734 KinEng   =       0.000000 Temp     =       0.000000 
PotEng   =    2879.761734 E_bond   =    4461.081297 E_angle  =    3741.657493 
E_dihed  =      49.005227 E_impro  =      42.278059 E_vdwl   =    5000.514278 
E_coul   =  -11588.645160 E_long   =    1173.870540 Press    =  197199.676807
------------ Step             20 ----- CPU =  0.005758626 (sec) -------------
TotEng   =   -8440.218005 KinEng   =       0.000000 Temp     =       0.000000 
PotEng   =   -8440.218005 E_bond   =     308.947004 E_angle  =    2623.896067 
E_dihed  =      40.243902 E_impro  =      82.427068 E_vdwl   =    1154.398090 
E_coul   =  -12665.702383 E_long   =      15.572247 Press    =   24756.345872
------------ Step             30 ----- CPU =  0.008677764 (sec) -------------
TotEng   =  -11502.905798 KinEng   =       0.000000 Temp     =       0.000000 
PotEng   =  -11502.905798 E_bond   =     274.482075 E_angle  =    2014.810320 
E_dihed  =      59.459192 E_impro  =      49.411100 E_vdwl   =    1044.745022 
E_coul   =  -14070.788279 E_long   =    -875.025228 Press    =    3931.462021
------------ Step             40 ----- CPU =   0.01176917 (sec) -------------
TotEng   =  -13575.975992 KinEng   =       0.000000 Temp     =       0.000000 
PotEng   =  -13575.975992 E_bond   =     225.840703 E_angle  =    1664.871893 
E_dihed  =      72.558417 E_impro  =      35.688413 E_vdwl   =    1036.779434 
E_coul   =  -15201.047901 E_long   =   -1410.666950 Press    =   -6505.807780
------------ Step             50 ----- CPU =   0.01543758 (sec) -------------
TotEng   =  -14997.653117 KinEng   =       0.000000 Temp     =       0.000000 
PotEng   =  -14997.653117 E_bond   =     254.599353 E_angle  =    1605.369577 
E_dihed  =     101.648934 E_impro  =      51.481626 E_vdwl   =    1121.948175 
E_coul   =  -16317.351337 E_long   =   -1815.349446 Press    =  -11740.313250
------------ Step             60 ----- CPU =   0.01969522 (sec) -------------
TotEng   =  -15832.320630 KinEng   =       0.000000 Temp     =       0.000000 
PotEng   =  -15832.320630 E_bond   =     268.449869 E_angle  =    1562.032134 
E_dihed  =     124.479019 E_impro  =      52.864303 E_vdwl   =    1342.491155 
E_coul   =  -17153.642878 E_long   =   -2028.994232 Press    =   -9430.789069
------------ Step             70 ----- CPU =   0.02362636 (sec) -------------
TotEng   =  -16289.436086 KinEng   =       0.000000 Temp     =       0.000000 
PotEng   =  -16289.436086 E_bond   =     271.211129 E_angle  =    1469.719333 
E_dihed  =     129.415408 E_impro  =      45.978092 E_vdwl   =    1308.858362 
E_coul   =  -17390.263689 E_long   =   -2124.354721 Press    =  -12100.123125
------------ Step             80 ----- CPU =   0.02859005 (sec) -------------
TotEng   =  -16754.767071 KinEng   =       0.000000 Temp     =       0.000000 
PotEng   =  -16754.767071 E_bond   =     299.710180 E_angle  =    1345.836998 
E_dihed  =     133.451265 E_impro  =      52.722638 E_vdwl   =    1342.897124 
E_coul   =  -17678.183362 E_long   =   -2251.201913 Press    =  -14100.833256
------------ Step             90 ----- CPU =   0.03306651 (sec) -------------
TotEng   =  -17040.317347 KinEng   =       0.000000 Temp     =       0.000000 
PotEng   =  -17040.317347 E_bond   =     320.448843 E_angle  =    1272.287486 
E_dihed  =     132.620502 E_impro  =      57.629591 E_vdwl   =    1355.595714 
E_coul   =  -17851.101143 E_long   =   -2327.798341 Press    =  -15093.160975
------------ Step            100 ----- CPU =   0.03777827 (sec) -------------
TotEng   =  -17289.472523 KinEng   =       0.000000 Temp     =       0.000000 
PotEng   =  -17289.472523 E_bond   =     345.729703 E_angle  =    1221.477612 
E_dihed  =     132.356181 E_impro  =      61.482218 E_vdwl   =    1357.717662 
E_coul   =  -18002.231726 E_long   =   -2406.004172 Press    =  -16455.632680
------------ Step            110 ----- CPU =   0.04169986 (sec) -------------
TotEng   =  -17505.651983 KinEng   =       0.000000 Temp     =       0.000000 
PotEng   =  -17505.651983 E_bond   =     360.558461 E_angle  =    1178.108900 
E_dihed  =     133.294969 E_impro  =      64.529442 E_vdwl   =    1373.183145 
E_coul   =  -18147.389124 E_long   =   -2467.937776 Press    =  -16981.121206
------------ Step            120 ----- CPU =   0.04658117 (sec) -------------
TotEng   =  -17589.222611 KinEng   =       0.000000 Temp     =       0.000000 
PotEng   =  -17589.222611 E_bond   =     367.208143 E_angle  =    1176.793118 
E_dihed  =     134.452347 E_impro  =      65.975622 E_vdwl   =    1344.148218 
E_coul   =  -18181.732568 E_long   =   -2496.067490 Press    =  -18456.478722
------------ Step            130 ----- CPU =   0.05106275 (sec) -------------
TotEng   =  -17707.064434 KinEng   =       0.000000 Temp     =       0.000000 
PotEng   =  -17707.064434 E_bond   =     367.261823 E_angle  =    1184.145906 
E_dihed  =     137.881748 E_impro  =      68.580515 E_vdwl   =    1356.841305 
E_coul   =  -18257.413107 E_long   =   -2564.362625 Press    =  -18403.454269
------------ Step            140 ----- CPU =   0.05573098 (sec) -------------
TotEng   =  -17791.931652 KinEng   =       0.000000 Temp     =       0.000000 
PotEng   =  -17791.931652 E_bond   =     368.847765 E_angle  =    1185.342648 
E_dihed  =     140.772135 E_impro  =      70.986293 E_vdwl   =    1345.683161 
E_coul   =  -18280.995637 E_long   =   -2622.568017 Press    =  -19162.675323
------------ Step            150 ----- CPU =   0.06070991 (sec) -------------
TotEng   =  -17823.984609 KinEng   =       0.000000 Temp     =       0.000000 
PotEng   =  -17823.984609 E_bond   =     366.318591 E_angle  =    1189.304861 
E_dihed  =     142.020822 E_impro  =      71.869564 E_vdwl   =    1361.970583 
E_coul   =  -18303.603516 E_long   =   -2651.865512 Press    =  -18708.775921
------------ Step            151 ----- CPU =   0.06153627 (sec) -------------
TotEng   =  -17825.412534 KinEng   =       0.000000 Temp     =       0.000000 
PotEng   =  -17825.412534 E_bond   =     371.973417 E_angle  =    1188.669393 
E_dihed  =     141.774851 E_impro  =      71.713144 E_vdwl   =    1335.395161 
E_coul   =  -18284.325903 E_long   =   -2650.612598 Press    =  -19522.833822
Loop time of 0.0615638 on 8 procs for 151 steps with 122 atoms

99.0% CPU use with 8 MPI tasks x 1 OpenMP threads

Minimization stats:
  Stopping criterion = energy tolerance
  Energy initial, next-to-last, final = 
      3343284.81983809  -17823.9846086767   -17825.412533786
  Force two-norm initial, final = 54248771 189.68844
  Force max component initial, final = 32626875 114.66454
  Final line search alpha, max atom move = 0.0025575041 0.29325504
  Iterations, force evaluations = 151 236

MPI task timing breakdown:
Section |  min time  |  avg time  |  max time  |%varavg| %total
---------------------------------------------------------------
Pair    | 0.0016231  | 0.0032472  | 0.0069438  |   3.5 |  5.27
Bond    | 0.00044543 | 0.0011054  | 0.0027843  |   2.6 |  1.80
Kspace  | 0.03717    | 0.042392   | 0.04494    |   1.4 | 68.86
Neigh   | 0.00089487 | 0.00094897 | 0.00097928 |   0.0 |  1.54
Comm    | 0.0089354  | 0.010123   | 0.011245   |   0.7 | 16.44
Output  | 0.00080698 | 0.00083494 | 0.00094233 |   0.0 |  1.36
Modify  | 0          | 0          | 0          |   0.0 |  0.00
Other   |            | 0.002913   |            |       |  4.73

Nlocal:          15.25 ave          36 max           5 min
Histogram: 1 5 0 0 0 0 0 0 0 2
Nghost:          591.5 ave         629 max         564 min
Histogram: 2 1 0 1 0 1 2 0 0 1
Neighs:        712.875 ave        1727 max         292 min
Histogram: 3 2 1 0 0 0 1 0 0 1

Total # of neighbors = 5703
Ave neighs/atom = 46.745902
Ave special neighs/atom = 10.967213
Neighbor list builds = 7
Dangerous builds = 0
min_style            cg
minimize             1.0e-4 1.0e-4 500 5000
Switching to 'neigh_modify every 1 delay 0 check yes' setting during minimization
PPPM initialization ...
  using 12-bit tables for long-range coulomb (src/kspace.cpp:342)
  G vector (1/distance) = 0.27621456
  grid = 12 12 12
  stencil order = 5
  estimated absolute RMS force accuracy = 0.014812192
  estimated relative force accuracy = 4.4606477e-05
  using double precision FFTW3
  3d grid and FFT values/proc = 2197 288
Generated 28 of 28 mixed pair_coeff terms from geometric mixing rule
Per MPI rank memory allocation (min/avg/max) = 31.71 | 31.85 | 32.36 Mbytes
------------ Step            151 ----- CPU =            0 (sec) -------------
TotEng   =  -17825.412534 KinEng   =       0.000000 Temp     =       0.000000 
PotEng   =  -17825.412534 E_bond   =     371.973417 E_angle  =    1188.669393 
E_dihed  =     141.774851 E_impro  =      71.713144 E_vdwl   =    1335.395161 
E_coul   =  -18284.325903 E_long   =   -2650.612598 Press    =  -19522.833822
------------ Step            153 ----- CPU =  0.001328979 (sec) -------------
TotEng   =  -17830.955897 KinEng   =       0.000000 Temp     =       0.000000 
PotEng   =  -17830.955897 E_bond   =     367.620098 E_angle  =    1189.953752 
E_dihed  =     142.102169 E_impro  =      71.972685 E_vdwl   =    1353.334144 
E_coul   =  -18299.868944 E_long   =   -2656.069801 Press    =  -18989.835261
Loop time of 0.00135628 on 8 procs for 2 steps with 122 atoms

99.5% CPU use with 8 MPI tasks x 1 OpenMP threads

Minimization stats:
  Stopping criterion = energy tolerance
  Energy initial, next-to-last, final = 
      -17825.412533786  -17829.3219349348  -17830.9558966756
  Force two-norm initial, final = 189.68844 77.832689
  Force max component initial, final = 114.66454 17.219194
  Final line search alpha, max atom move = 0.0019013252 0.032739287
  Iterations, force evaluations = 2 4

MPI task timing breakdown:
Section |  min time  |  avg time  |  max time  |%varavg| %total
---------------------------------------------------------------
Pair    | 2.8936e-05 | 7.0902e-05 | 0.00016222 |   0.0 |  5.23
Bond    | 8.766e-06  | 2.4269e-05 | 6.1336e-05 |   0.0 |  1.79
Kspace  | 0.00077169 | 0.00089936 | 0.0009557  |   0.0 | 66.31
Neigh   | 0          | 0          | 0          |   0.0 |  0.00
Comm    | 0.00018478 | 0.00020382 | 0.00022163 |   0.0 | 15.03
Output  | 0          | 0          | 0          |   0.0 |  0.00
Modify  | 0          | 0          | 0          |   0.0 |  0.00
Other   |            | 0.0001579  |            |       | 11.64

Nlocal:          15.25 ave          37 max           4 min
Histogram: 1 4 1 0 0 0 0 0 0 2
Nghost:        594.125 ave         628 max         570 min
Histogram: 1 2 0 1 1 1 1 0 0 1
Neighs:        710.375 ave        1760 max         218 min
Histogram: 3 1 1 1 0 0 1 0 0 1

Total # of neighbors = 5683
Ave neighs/atom = 46.581967
Ave special neighs/atom = 10.967213
Neighbor list builds = 0
Dangerous builds = 0
#now                 minimize the entire system
minimize             1.0e-4 1.0e-4 500 5000
Switching to 'neigh_modify every 1 delay 0 check yes' setting during minimization
PPPM initialization ...
  using 12-bit tables for long-range coulomb (src/kspace.cpp:342)
  G vector (1/distance) = 0.27621456
  grid = 12 12 12
  stencil order = 5
  estimated absolute RMS force accuracy = 0.014812192
  estimated relative force accuracy = 4.4606477e-05
  using double precision FFTW3
  3d grid and FFT values/proc = 2197 288
Generated 28 of 28 mixed pair_coeff terms from geometric mixing rule
Per MPI rank memory allocation (min/avg/max) = 31.71 | 31.85 | 32.36 Mbytes
------------ Step            153 ----- CPU =            0 (sec) -------------
TotEng   =  -17830.955897 KinEng   =       0.000000 Temp     =       0.000000 
PotEng   =  -17830.955897 E_bond   =     367.620098 E_angle  =    1189.953752 
E_dihed  =     142.102169 E_impro  =      71.972685 E_vdwl   =    1353.334144 
E_coul   =  -18299.868944 E_long   =   -2656.069801 Press    =  -18989.835261
------------ Step            157 ----- CPU =  0.002053451 (sec) -------------
TotEng   =  -17883.518717 KinEng   =       0.000000 Temp     =       0.000000 
PotEng   =  -17883.518717 E_bond   =     372.707604 E_angle  =    1201.220468 
E_dihed  =     142.986195 E_impro  =      73.336633 E_vdwl   =    1332.134690 
E_coul   =  -18301.141724 E_long   =   -2704.762583 Press    =  -19869.855073
Loop time of 0.002081 on 8 procs for 4 steps with 122 atoms

99.4% CPU use with 8 MPI tasks x 1 OpenMP threads

Minimization stats:
  Stopping criterion = energy tolerance
  Energy initial, next-to-last, final = 
     -17830.9558966756  -17883.1787635068  -17883.5187171181
  Force two-norm initial, final = 77.832689 225.84841
  Force max component initial, final = 17.219194 142.30069
  Final line search alpha, max atom move = 0.002271801 0.32327884
  Iterations, force evaluations = 4 7

MPI task timing breakdown:
Section |  min time  |  avg time  |  max time  |%varavg| %total
---------------------------------------------------------------
Pair    | 4.4904e-05 | 0.0001139  | 0.00025993 |   0.0 |  5.47
Bond    | 1.3133e-05 | 3.8581e-05 | 9.3415e-05 |   0.0 |  1.85
Kspace  | 0.0012239  | 0.0014252  | 0.0015174  |   0.3 | 68.49
Neigh   | 0          | 0          | 0          |   0.0 |  0.00
Comm    | 0.00028186 | 0.00031179 | 0.00033508 |   0.0 | 14.98
Output  | 0          | 0          | 0          |   0.0 |  0.00
Modify  | 0          | 0          | 0          |   0.0 |  0.00
Other   |            | 0.0001915  |            |       |  9.20

Nlocal:          15.25 ave          37 max           4 min
Histogram: 1 4 1 0 0 0 0 0 0 2
Nghost:        594.125 ave         628 max         570 min
Histogram: 1 2 0 1 1 1 1 0 0 1
Neighs:        710.125 ave        1759 max         218 min
Histogram: 3 1 1 1 0 0 1 0 0 1

Total # of neighbors = 5681
Ave neighs/atom = 46.565574
Ave special neighs/atom = 10.967213
Neighbor list builds = 0
Dangerous builds = 0
undump               1

print                .
.
print                =====================================
=====================================
print                "NVT dynamics to heat system"
NVT dynamics to heat system
print                =====================================
=====================================
print                .
.

reset_timestep       0
##fix                  shakeH all shake 0.0001 20 500 m 1.0079
velocity             all create 0.0 12345678 dist uniform
thermo               100
dump                 1 all custom 1000 ${sname}.heat.lammpstrj id type xu yu zu vx vy vz
dump                 1 all custom 1000 combined_mc.heat.lammpstrj id type xu yu zu vx vy vz
fix                  4 all nvt temp 1.0 300.0 100.0
run                  10000
PPPM initialization ...
  using 12-bit tables for long-range coulomb (src/kspace.cpp:342)
  G vector (1/distance) = 0.27621456
  grid = 12 12 12
  stencil order = 5
  estimated absolute RMS force accuracy = 0.014812192
  estimated relative force accuracy = 4.4606477e-05
  using double precision FFTW3
  3d grid and FFT values/proc = 2197 288
Generated 28 of 28 mixed pair_coeff terms from geometric mixing rule
Per MPI rank memory allocation (min/avg/max) = 30.58 | 30.72 | 31.24 Mbytes
------------ Step              0 ----- CPU =            0 (sec) -------------
TotEng   =  -17883.518717 KinEng   =       0.000000 Temp     =       0.000000 
PotEng   =  -17883.518717 E_bond   =     372.707604 E_angle  =    1201.220468 
E_dihed  =     142.986195 E_impro  =      73.336633 E_vdwl   =    1332.134690 
E_coul   =  -18301.141724 E_long   =   -2704.762583 Press    =  -19869.855073
------------ Step            100 ----- CPU =   0.02304423 (sec) -------------
TotEng   =  -18175.993896 KinEng   =     144.577140 Temp     =     400.848217 
PotEng   =  -18320.571035 E_bond   =     397.349187 E_angle  =    1364.565168 
E_dihed  =     159.826402 E_impro  =     119.518361 E_vdwl   =    1384.834630 
E_coul   =  -18671.164873 E_long   =   -3075.499910 Press    =  -19453.291191
------------ Step            200 ----- CPU =   0.04722931 (sec) -------------
TotEng   =  -18787.349321 KinEng   =     176.745261 Temp     =     490.036134 
PotEng   =  -18964.094581 E_bond   =     425.921240 E_angle  =    1432.794965 
E_dihed  =     167.649002 E_impro  =     117.157003 E_vdwl   =    1467.816229 
E_coul   =  -19206.440120 E_long   =   -3368.992901 Press    =  -17956.878010
------------ Step            300 ----- CPU =   0.07015206 (sec) -------------
TotEng   =  -19251.870383 KinEng   =      84.824312 Temp     =     235.180156 
PotEng   =  -19336.694695 E_bond   =     356.263559 E_angle  =    1303.046539 
E_dihed  =     156.192996 E_impro  =     109.298469 E_vdwl   =    1485.397860 
E_coul   =  -19301.598230 E_long   =   -3445.295889 Press    =  -15688.646147
------------ Step            400 ----- CPU =   0.09293277 (sec) -------------
TotEng   =  -19474.090322 KinEng   =      63.166650 Temp     =     175.133075 
PotEng   =  -19537.256972 E_bond   =     327.226019 E_angle  =    1221.332146 
E_dihed  =     153.046860 E_impro  =     111.031999 E_vdwl   =    1506.400241 
E_coul   =  -19360.075520 E_long   =   -3496.218718 Press    =  -13136.848640
------------ Step            500 ----- CPU =    0.1163982 (sec) -------------
TotEng   =  -19627.574113 KinEng   =      57.691037 Temp     =     159.951630 
PotEng   =  -19685.265149 E_bond   =     310.090273 E_angle  =    1246.648950 
E_dihed  =     153.069466 E_impro  =     114.216679 E_vdwl   =    1513.900265 
E_coul   =  -19484.995946 E_long   =   -3538.194835 Press    =  -13025.423939
------------ Step            600 ----- CPU =    0.1402262 (sec) -------------
TotEng   =  -19763.276734 KinEng   =      57.426153 Temp     =     159.217227 
PotEng   =  -19820.702888 E_bond   =     294.983186 E_angle  =    1254.978943 
E_dihed  =     154.166989 E_impro  =     115.237379 E_vdwl   =    1524.001627 
E_coul   =  -19591.960910 E_long   =   -3572.110102 Press    =  -12164.557341
------------ Step            700 ----- CPU =    0.1636945 (sec) -------------
TotEng   =  -19890.952694 KinEng   =      57.056251 Temp     =     158.191652 
PotEng   =  -19948.008945 E_bond   =     284.179346 E_angle  =    1255.251477 
E_dihed  =     154.270580 E_impro  =     113.586198 E_vdwl   =    1526.197503 
E_coul   =  -19664.057410 E_long   =   -3617.436639 Press    =  -11610.381521
------------ Step            800 ----- CPU =    0.1874482 (sec) -------------
TotEng   =  -20005.631436 KinEng   =      53.545987 Temp     =     148.459247 
PotEng   =  -20059.177423 E_bond   =     283.833855 E_angle  =    1254.296911 
E_dihed  =     152.570689 E_impro  =     110.553498 E_vdwl   =    1523.580419 
E_coul   =  -19720.896786 E_long   =   -3663.116010 Press    =  -11047.101415
------------ Step            900 ----- CPU =    0.2113531 (sec) -------------
TotEng   =  -20121.237087 KinEng   =      65.617852 Temp     =     181.929171 
PotEng   =  -20186.854939 E_bond   =     288.167031 E_angle  =    1252.984039 
E_dihed  =     139.247811 E_impro  =      94.742127 E_vdwl   =    1511.257098 
E_coul   =  -19752.344523 E_long   =   -3720.908521 Press    =  -11537.462991
------------ Step           1000 ----- CPU =    0.2358165 (sec) -------------
TotEng   =  -20410.435912 KinEng   =     168.752102 Temp     =     467.874653 
PotEng   =  -20579.188014 E_bond   =     312.752550 E_angle  =    1343.263081 
E_dihed  =     146.204999 E_impro  =      95.922770 E_vdwl   =    1517.744625 
E_coul   =  -20210.659486 E_long   =   -3784.416553 Press    =  -11799.310577
------------ Step           1100 ----- CPU =    0.2609981 (sec) -------------
TotEng   =  -20665.862704 KinEng   =      70.321486 Temp     =     194.970259 
PotEng   =  -20736.184190 E_bond   =     300.779694 E_angle  =    1309.092815 
E_dihed  =     143.149859 E_impro  =      97.005420 E_vdwl   =    1566.123776 
E_coul   =  -20340.163945 E_long   =   -3812.171808 Press    =  -10351.535208
------------ Step           1200 ----- CPU =    0.2855665 (sec) -------------
TotEng   =  -20781.837639 KinEng   =      58.606321 Temp     =     162.489306 
PotEng   =  -20840.443960 E_bond   =     304.410110 E_angle  =    1344.535591 
E_dihed  =     163.688133 E_impro  =     104.730763 E_vdwl   =    1561.387154 
E_coul   =  -20478.499719 E_long   =   -3840.695991 Press    =   -9959.201566
------------ Step           1300 ----- CPU =    0.3104126 (sec) -------------
TotEng   =  -20872.012157 KinEng   =      57.481620 Temp     =     159.371012 
PotEng   =  -20929.493777 E_bond   =     307.015257 E_angle  =    1356.298043 
E_dihed  =     158.129480 E_impro  =     129.698347 E_vdwl   =    1590.386644 
E_coul   =  -20597.639606 E_long   =   -3873.381943 Press    =   -9196.706903
------------ Step           1400 ----- CPU =    0.3355646 (sec) -------------
TotEng   =  -20975.051613 KinEng   =      56.782957 Temp     =     157.433929 
PotEng   =  -21031.834570 E_bond   =     300.556848 E_angle  =    1423.902794 
E_dihed  =     164.516635 E_impro  =     128.335032 E_vdwl   =    1643.423064 
E_coul   =  -20780.592949 E_long   =   -3911.975995 Press    =   -7751.015562
------------ Step           1500 ----- CPU =    0.3615932 (sec) -------------
TotEng   =  -21079.987065 KinEng   =      58.589145 Temp     =     162.441685 
PotEng   =  -21138.576210 E_bond   =     298.541833 E_angle  =    1491.425305 
E_dihed  =     162.538481 E_impro  =     118.069791 E_vdwl   =    1656.075472 
E_coul   =  -20916.812883 E_long   =   -3948.414210 Press    =   -7301.345290
------------ Step           1600 ----- CPU =    0.3868755 (sec) -------------
TotEng   =  -21202.744365 KinEng   =      85.092805 Temp     =     235.924569 
PotEng   =  -21287.837170 E_bond   =     302.927360 E_angle  =    1555.721080 
E_dihed  =     162.818470 E_impro  =     125.228116 E_vdwl   =    1677.801622 
E_coul   =  -21145.164897 E_long   =   -3967.168921 Press    =   -6301.927037
------------ Step           1700 ----- CPU =    0.4123537 (sec) -------------
TotEng   =  -21322.547610 KinEng   =      54.862156 Temp     =     152.108399 
PotEng   =  -21377.409765 E_bond   =     310.721353 E_angle  =    1646.686218 
E_dihed  =     163.669418 E_impro  =     128.841819 E_vdwl   =    1701.289093 
E_coul   =  -21331.252768 E_long   =   -3997.364899 Press    =   -5759.949464
------------ Step           1800 ----- CPU =    0.4381577 (sec) -------------
TotEng   =  -21379.548489 KinEng   =      31.413665 Temp     =      87.096146 
PotEng   =  -21410.962154 E_bond   =     294.986942 E_angle  =    1674.947027 
E_dihed  =     162.949874 E_impro  =     127.006306 E_vdwl   =    1725.921510 
E_coul   =  -21386.648490 E_long   =   -4010.125323 Press    =   -4483.807389
------------ Step           1900 ----- CPU =    0.4642196 (sec) -------------
TotEng   =  -21431.991487 KinEng   =      52.589609 Temp     =     145.807635 
PotEng   =  -21484.581096 E_bond   =     276.378872 E_angle  =    1739.806560 
E_dihed  =     161.319061 E_impro  =     126.775453 E_vdwl   =    1737.308527 
E_coul   =  -21510.447367 E_long   =   -4015.722203 Press    =   -4714.641342
------------ Step           2000 ----- CPU =    0.4905748 (sec) -------------
TotEng   =  -21473.545016 KinEng   =      27.659517 Temp     =      76.687560 
PotEng   =  -21501.204533 E_bond   =     282.210585 E_angle  =    1776.523559 
E_dihed  =     160.268447 E_impro  =     125.320042 E_vdwl   =    1742.619944 
E_coul   =  -21550.996206 E_long   =   -4037.150903 Press    =   -4485.317618
------------ Step           2100 ----- CPU =    0.5161304 (sec) -------------
TotEng   =  -21504.317316 KinEng   =      31.832270 Temp     =      88.256752 
PotEng   =  -21536.149587 E_bond   =     283.593559 E_angle  =    1847.321074 
E_dihed  =     162.589615 E_impro  =     123.246179 E_vdwl   =    1757.857997 
E_coul   =  -21668.112058 E_long   =   -4042.645953 Press    =   -4308.532571
------------ Step           2200 ----- CPU =    0.5420185 (sec) -------------
TotEng   =  -21535.849298 KinEng   =      41.142169 Temp     =     114.068968 
PotEng   =  -21576.991467 E_bond   =     281.717504 E_angle  =    1859.593212 
E_dihed  =     162.306766 E_impro  =     123.914748 E_vdwl   =    1741.573923 
E_coul   =  -21701.716154 E_long   =   -4044.381467 Press    =   -5383.157898
------------ Step           2300 ----- CPU =    0.5680316 (sec) -------------
TotEng   =  -21595.214425 KinEng   =      75.175268 Temp     =     208.427641 
PotEng   =  -21670.389693 E_bond   =     287.050183 E_angle  =    1903.237429 
E_dihed  =     164.556138 E_impro  =     131.102113 E_vdwl   =    1734.030871 
E_coul   =  -21826.528408 E_long   =   -4063.838019 Press    =   -6438.184857
------------ Step           2400 ----- CPU =    0.5949949 (sec) -------------
TotEng   =  -21747.903747 KinEng   =     114.930490 Temp     =     318.651221 
PotEng   =  -21862.834237 E_bond   =     327.103249 E_angle  =    1875.078554 
E_dihed  =     166.641377 E_impro  =     147.295440 E_vdwl   =    1821.720149 
E_coul   =  -22099.509265 E_long   =   -4101.163740 Press    =   -2159.509875
------------ Step           2500 ----- CPU =    0.6215058 (sec) -------------
TotEng   =  -21918.237621 KinEng   =      68.162337 Temp     =     188.983897 
PotEng   =  -21986.399958 E_bond   =     333.855498 E_angle  =    1806.814990 
E_dihed  =     170.406652 E_impro  =     146.971136 E_vdwl   =    1755.201324 
E_coul   =  -22101.344069 E_long   =   -4098.305489 Press    =   -6288.763838
------------ Step           2600 ----- CPU =    0.6476059 (sec) -------------
TotEng   =  -21981.315125 KinEng   =      37.305702 Temp     =     103.432149 
PotEng   =  -22018.620828 E_bond   =     326.146702 E_angle  =    1765.199435 
E_dihed  =     171.498732 E_impro  =     145.264346 E_vdwl   =    1760.793401 
E_coul   =  -22093.459698 E_long   =   -4094.063746 Press    =   -4584.635589
------------ Step           2700 ----- CPU =    0.6736517 (sec) -------------
TotEng   =  -22011.131643 KinEng   =      24.300279 Temp     =      67.373885 
PotEng   =  -22035.431922 E_bond   =     324.798564 E_angle  =    1811.936558 
E_dihed  =     171.175511 E_impro  =     145.841750 E_vdwl   =    1766.550710 
E_coul   =  -22160.269005 E_long   =   -4095.466010 Press    =   -4870.774726
------------ Step           2800 ----- CPU =    0.7008063 (sec) -------------
TotEng   =  -22047.668159 KinEng   =      45.523465 Temp     =     126.216357 
PotEng   =  -22093.191624 E_bond   =     309.629454 E_angle  =    1846.186380 
E_dihed  =     169.532017 E_impro  =     124.242512 E_vdwl   =    1785.380006 
E_coul   =  -22217.965297 E_long   =   -4110.196696 Press    =   -4256.909751
------------ Step           2900 ----- CPU =    0.7268288 (sec) -------------
TotEng   =  -22097.293288 KinEng   =      45.588392 Temp     =     126.396370 
PotEng   =  -22142.881680 E_bond   =     309.813471 E_angle  =    1808.209640 
E_dihed  =     161.709355 E_impro  =     104.694642 E_vdwl   =    1791.421069 
E_coul   =  -22181.770514 E_long   =   -4136.959344 Press    =   -5365.641638
------------ Step           3000 ----- CPU =    0.7531123 (sec) -------------
TotEng   =  -22126.794614 KinEng   =      29.291744 Temp     =      81.213000 
PotEng   =  -22156.086358 E_bond   =     299.838375 E_angle  =    1788.581603 
E_dihed  =     162.229454 E_impro  =     103.951066 E_vdwl   =    1813.440169 
E_coul   =  -22187.761650 E_long   =   -4136.365375 Press    =   -3978.253115
------------ Step           3100 ----- CPU =    0.7789412 (sec) -------------
TotEng   =  -22128.419424 KinEng   =      23.241166 Temp     =      64.437435 
PotEng   =  -22151.660590 E_bond   =     308.623420 E_angle  =    1840.105046 
E_dihed  =     163.083570 E_impro  =     118.467500 E_vdwl   =    1841.617862 
E_coul   =  -22298.728472 E_long   =   -4124.829517 Press    =   -3386.736293
------------ Step           3200 ----- CPU =    0.8056925 (sec) -------------
TotEng   =  -22150.728587 KinEng   =      25.149655 Temp     =      69.728826 
PotEng   =  -22175.878241 E_bond   =     298.928829 E_angle  =    1801.166036 
E_dihed  =     162.208205 E_impro  =     104.818151 E_vdwl   =    1806.739146 
E_coul   =  -22226.031371 E_long   =   -4123.707237 Press    =   -4492.375403
------------ Step           3300 ----- CPU =    0.8315181 (sec) -------------
TotEng   =  -22157.330016 KinEng   =      22.043869 Temp     =      61.117860 
PotEng   =  -22179.373885 E_bond   =     310.833978 E_angle  =    1812.133340 
E_dihed  =     161.571940 E_impro  =      97.819726 E_vdwl   =    1770.467824 
E_coul   =  -22207.825071 E_long   =   -4124.375622 Press    =   -6574.128874
------------ Step           3400 ----- CPU =     0.857959 (sec) -------------
TotEng   =  -22159.551858 KinEng   =      25.670486 Temp     =      71.172860 
PotEng   =  -22185.222344 E_bond   =     300.852131 E_angle  =    1808.216703 
E_dihed  =     160.488803 E_impro  =      99.821776 E_vdwl   =    1779.082492 
E_coul   =  -22214.046444 E_long   =   -4119.637805 Press    =   -5276.539357
------------ Step           3500 ----- CPU =    0.8837406 (sec) -------------
TotEng   =  -22158.318477 KinEng   =      37.430690 Temp     =     103.778685 
PotEng   =  -22195.749167 E_bond   =     311.398700 E_angle  =    1847.729697 
E_dihed  =     161.949472 E_impro  =      99.169647 E_vdwl   =    1796.439732 
E_coul   =  -22286.185920 E_long   =   -4126.250495 Press    =   -4915.597881
------------ Step           3600 ----- CPU =    0.9104903 (sec) -------------
TotEng   =  -22155.959929 KinEng   =      46.470335 Temp     =     128.841605 
PotEng   =  -22202.430264 E_bond   =     304.024864 E_angle  =    1821.973017 
E_dihed  =     161.590786 E_impro  =     102.801618 E_vdwl   =    1798.161893 
E_coul   =  -22257.797972 E_long   =   -4133.184470 Press    =   -5313.012464
------------ Step           3700 ----- CPU =    0.9374858 (sec) -------------
TotEng   =  -22158.030031 KinEng   =      56.419887 Temp     =     156.427296 
PotEng   =  -22214.449918 E_bond   =     318.998579 E_angle  =    1841.270421 
E_dihed  =     160.864147 E_impro  =     100.448872 E_vdwl   =    1816.337359 
E_coul   =  -22313.958050 E_long   =   -4138.411247 Press    =   -4564.894812
------------ Step           3800 ----- CPU =    0.9644134 (sec) -------------
TotEng   =  -22172.229102 KinEng   =      61.865739 Temp     =     171.526226 
PotEng   =  -22234.094841 E_bond   =     311.993717 E_angle  =    1843.335479 
E_dihed  =     161.345415 E_impro  =      98.554565 E_vdwl   =    1809.152251 
E_coul   =  -22316.499232 E_long   =   -4141.977036 Press    =   -4606.966307
------------ Step           3900 ----- CPU =    0.9910538 (sec) -------------
TotEng   =  -22200.643153 KinEng   =      58.181206 Temp     =     161.310653 
PotEng   =  -22258.824359 E_bond   =     333.839263 E_angle  =    1831.809845 
E_dihed  =     161.795243 E_impro  =      94.631284 E_vdwl   =    1805.896580 
E_coul   =  -22329.274950 E_long   =   -4157.521625 Press    =   -6135.501734
------------ Step           4000 ----- CPU =      1.01806 (sec) -------------
TotEng   =  -22229.655855 KinEng   =      44.284202 Temp     =     122.780430 
PotEng   =  -22273.940057 E_bond   =     325.488999 E_angle  =    1827.150463 
E_dihed  =     163.137669 E_impro  =      95.254890 E_vdwl   =    1809.078066 
E_coul   =  -22328.902241 E_long   =   -4165.147905 Press    =   -5728.500934
------------ Step           4100 ----- CPU =     1.045949 (sec) -------------
TotEng   =  -22251.831230 KinEng   =      38.129801 Temp     =     105.717008 
PotEng   =  -22289.961030 E_bond   =     320.639782 E_angle  =    1790.745104 
E_dihed  =     163.286188 E_impro  =      94.362581 E_vdwl   =    1809.774156 
E_coul   =  -22297.739244 E_long   =   -4171.029599 Press    =   -5698.079071
------------ Step           4200 ----- CPU =     1.073444 (sec) -------------
TotEng   =  -22269.713073 KinEng   =      41.649657 Temp     =     115.476006 
PotEng   =  -22311.362730 E_bond   =     328.019909 E_angle  =    1818.477199 
E_dihed  =     162.898376 E_impro  =      95.660367 E_vdwl   =    1833.935513 
E_coul   =  -22364.575530 E_long   =   -4185.778564 Press    =   -4551.605737
------------ Step           4300 ----- CPU =     1.101031 (sec) -------------
TotEng   =  -22286.252155 KinEng   =      48.411615 Temp     =     134.223914 
PotEng   =  -22334.663770 E_bond   =     330.946795 E_angle  =    1823.375847 
E_dihed  =     163.422635 E_impro  =      95.748386 E_vdwl   =    1807.346786 
E_coul   =  -22351.969276 E_long   =   -4203.534944 Press    =   -5790.799763
------------ Step           4400 ----- CPU =     1.128432 (sec) -------------
TotEng   =  -22305.713689 KinEng   =      57.838557 Temp     =     160.360638 
PotEng   =  -22363.552246 E_bond   =     322.846433 E_angle  =    1834.346517 
E_dihed  =     165.362149 E_impro  =      94.778518 E_vdwl   =    1805.913722 
E_coul   =  -22355.024912 E_long   =   -4231.774673 Press    =   -5960.271104
------------ Step           4500 ----- CPU =     1.157331 (sec) -------------
TotEng   =  -22336.332857 KinEng   =      73.569718 Temp     =     203.976164 
PotEng   =  -22409.902575 E_bond   =     332.167337 E_angle  =    1863.544492 
E_dihed  =     166.055155 E_impro  =      95.671802 E_vdwl   =    1820.953259 
E_coul   =  -22425.254553 E_long   =   -4263.040068 Press    =   -5784.042518
------------ Step           4600 ----- CPU =     1.185751 (sec) -------------
TotEng   =  -22380.033451 KinEng   =      88.683477 Temp     =     245.879908 
PotEng   =  -22468.716928 E_bond   =     343.417519 E_angle  =    1897.852766 
E_dihed  =     166.041718 E_impro  =     108.195147 E_vdwl   =    1828.189440 
E_coul   =  -22522.306647 E_long   =   -4290.106871 Press    =   -6238.782536
------------ Step           4700 ----- CPU =     1.213568 (sec) -------------
TotEng   =  -22447.922153 KinEng   =      60.204229 Temp     =     166.919596 
PotEng   =  -22508.126382 E_bond   =     326.741296 E_angle  =    1952.067509 
E_dihed  =     163.857885 E_impro  =     114.190078 E_vdwl   =    1882.057845 
E_coul   =  -22653.404896 E_long   =   -4293.636098 Press    =   -3160.487372
------------ Step           4800 ----- CPU =     1.240915 (sec) -------------
TotEng   =  -22481.477789 KinEng   =      31.138208 Temp     =      86.332426 
PotEng   =  -22512.615997 E_bond   =     332.001723 E_angle  =    1976.771733 
E_dihed  =     167.355783 E_impro  =     113.036674 E_vdwl   =    1864.793177 
E_coul   =  -22677.200323 E_long   =   -4289.374762 Press    =   -4494.210603
------------ Step           4900 ----- CPU =     1.269223 (sec) -------------
TotEng   =  -22505.341898 KinEng   =      24.037846 Temp     =      66.646275 
PotEng   =  -22529.379744 E_bond   =     339.133347 E_angle  =    1961.317667 
E_dihed  =     167.973272 E_impro  =     103.179317 E_vdwl   =    1866.897039 
E_coul   =  -22672.773796 E_long   =   -4295.106591 Press    =   -3911.349344
------------ Step           5000 ----- CPU =     1.297845 (sec) -------------
TotEng   =  -22511.411109 KinEng   =      33.230297 Temp     =      92.132858 
PotEng   =  -22544.641406 E_bond   =     346.892170 E_angle  =    1951.833410 
E_dihed  =     163.338545 E_impro  =     102.967897 E_vdwl   =    1855.184237 
E_coul   =  -22681.343950 E_long   =   -4283.513715 Press    =   -4355.578191
------------ Step           5100 ----- CPU =     1.325715 (sec) -------------
TotEng   =  -22499.506155 KinEng   =      43.736404 Temp     =     121.261631 
PotEng   =  -22543.242559 E_bond   =     329.503488 E_angle  =    1929.963302 
E_dihed  =     165.601898 E_impro  =     112.728784 E_vdwl   =    1823.576155 
E_coul   =  -22611.202921 E_long   =   -4293.413265 Press    =   -5458.152262
------------ Step           5200 ----- CPU =     1.353765 (sec) -------------
TotEng   =  -22495.399887 KinEng   =      58.601940 Temp     =     162.477161 
PotEng   =  -22554.001827 E_bond   =     327.549496 E_angle  =    1939.079094 
E_dihed  =     165.452800 E_impro  =     114.469597 E_vdwl   =    1790.726458 
E_coul   =  -22590.487150 E_long   =   -4300.792121 Press    =   -6885.901748
------------ Step           5300 ----- CPU =      1.38201 (sec) -------------
TotEng   =  -22505.596061 KinEng   =      67.917960 Temp     =     188.306349 
PotEng   =  -22573.514021 E_bond   =     367.121426 E_angle  =    1991.782818 
E_dihed  =     160.887871 E_impro  =     104.340310 E_vdwl   =    1809.662023 
E_coul   =  -22719.309786 E_long   =   -4287.998684 Press    =   -6471.742807
------------ Step           5400 ----- CPU =     1.409837 (sec) -------------
TotEng   =  -22508.331850 KinEng   =      71.925769 Temp     =     199.418224 
PotEng   =  -22580.257620 E_bond   =     353.133376 E_angle  =    1966.188009 
E_dihed  =     161.063872 E_impro  =     105.279066 E_vdwl   =    1793.491997 
E_coul   =  -22654.127212 E_long   =   -4305.286728 Press    =   -7600.836914
------------ Step           5500 ----- CPU =     1.436862 (sec) -------------
TotEng   =  -22506.752354 KinEng   =      81.273967 Temp     =     225.336625 
PotEng   =  -22588.026321 E_bond   =     342.527609 E_angle  =    2009.825852 
E_dihed  =     164.648536 E_impro  =     117.794807 E_vdwl   =    1786.741680 
E_coul   =  -22705.183308 E_long   =   -4304.381497 Press    =   -8271.790409
------------ Step           5600 ----- CPU =     1.463639 (sec) -------------
TotEng   =  -22530.753432 KinEng   =      75.196828 Temp     =     208.487416 
PotEng   =  -22605.950260 E_bond   =     337.475821 E_angle  =    1988.560422 
E_dihed  =     164.691182 E_impro  =     124.957529 E_vdwl   =    1821.987486 
E_coul   =  -22724.261925 E_long   =   -4319.360774 Press    =   -5629.771659
------------ Step           5700 ----- CPU =     1.491028 (sec) -------------
TotEng   =  -22573.982245 KinEng   =      67.660088 Temp     =     187.591383 
PotEng   =  -22641.642332 E_bond   =     332.954039 E_angle  =    1982.704902 
E_dihed  =     162.896870 E_impro  =     107.296709 E_vdwl   =    1777.350067 
E_coul   =  -22674.987622 E_long   =   -4329.857298 Press    =   -8303.978417
------------ Step           5800 ----- CPU =     1.518799 (sec) -------------
TotEng   =  -22583.492876 KinEng   =      55.324053 Temp     =     153.389036 
PotEng   =  -22638.816929 E_bond   =     334.722340 E_angle  =    1989.491364 
E_dihed  =     163.825591 E_impro  =     118.615583 E_vdwl   =    1799.147079 
E_coul   =  -22702.950637 E_long   =   -4341.668249 Press    =   -8021.642410
------------ Step           5900 ----- CPU =     1.545552 (sec) -------------
TotEng   =  -22600.304468 KinEng   =      52.279103 Temp     =     144.946741 
PotEng   =  -22652.583571 E_bond   =     346.118071 E_angle  =    2009.943149 
E_dihed  =     165.053444 E_impro  =     118.725676 E_vdwl   =    1806.970931 
E_coul   =  -22753.436155 E_long   =   -4345.958686 Press    =   -8016.541225
------------ Step           6000 ----- CPU =     1.572526 (sec) -------------
TotEng   =  -22615.334065 KinEng   =      70.410466 Temp     =     195.216959 
PotEng   =  -22685.744530 E_bond   =     363.933657 E_angle  =    2008.612165 
E_dihed  =     159.867695 E_impro  =     119.491621 E_vdwl   =    1805.566215 
E_coul   =  -22779.443270 E_long   =   -4363.772613 Press    =   -9891.669047
------------ Step           6100 ----- CPU =      1.59964 (sec) -------------
TotEng   =  -22654.473757 KinEng   =      85.202813 Temp     =     236.229570 
PotEng   =  -22739.676570 E_bond   =     340.050080 E_angle  =    2021.438064 
E_dihed  =     162.400096 E_impro  =     104.328061 E_vdwl   =    1794.374093 
E_coul   =  -22793.198527 E_long   =   -4369.068437 Press    =   -9753.375344
------------ Step           6200 ----- CPU =     1.628826 (sec) -------------
TotEng   =  -22688.735668 KinEng   =      90.983183 Temp     =     252.255971 
PotEng   =  -22779.718851 E_bond   =     344.060370 E_angle  =    2049.705446 
E_dihed  =     163.005943 E_impro  =     108.032162 E_vdwl   =    1837.916837 
E_coul   =  -22904.575940 E_long   =   -4377.863669 Press    =   -6263.084816
------------ Step           6300 ----- CPU =     1.657025 (sec) -------------
TotEng   =  -22722.880873 KinEng   =      86.798889 Temp     =     240.654780 
PotEng   =  -22809.679762 E_bond   =     325.105678 E_angle  =    1965.938371 
E_dihed  =     170.696881 E_impro  =     127.976017 E_vdwl   =    1796.973723 
E_coul   =  -22792.603199 E_long   =   -4403.767232 Press    =   -7540.670786
------------ Step           6400 ----- CPU =     1.684639 (sec) -------------
TotEng   =  -22764.243535 KinEng   =      62.258647 Temp     =     172.615586 
PotEng   =  -22826.502182 E_bond   =     328.818058 E_angle  =    1948.991919 
E_dihed  =     167.410199 E_impro  =     123.292577 E_vdwl   =    1816.926531 
E_coul   =  -22784.259068 E_long   =   -4427.682397 Press    =   -5699.302527
------------ Step           6500 ----- CPU =     1.712319 (sec) -------------
TotEng   =  -22795.899935 KinEng   =      97.472050 Temp     =     270.246718 
PotEng   =  -22893.371985 E_bond   =     367.138986 E_angle  =    2028.145143 
E_dihed  =     163.988226 E_impro  =     125.818807 E_vdwl   =    1887.315587 
E_coul   =  -23042.938955 E_long   =   -4422.839778 Press    =   -4811.819168
------------ Step           6600 ----- CPU =     1.741339 (sec) -------------
TotEng   =  -22865.703983 KinEng   =     102.289696 Temp     =     283.603911 
PotEng   =  -22967.993679 E_bond   =     360.722231 E_angle  =    2132.860929 
E_dihed  =     163.938462 E_impro  =     117.119076 E_vdwl   =    1882.051042 
E_coul   =  -23216.415752 E_long   =   -4408.269667 Press    =   -3175.438916
------------ Step           6700 ----- CPU =     1.772814 (sec) -------------
TotEng   =  -22898.969551 KinEng   =      68.150470 Temp     =     188.950996 
PotEng   =  -22967.120021 E_bond   =     390.108850 E_angle  =    2088.326352 
E_dihed  =     162.578854 E_impro  =     140.348584 E_vdwl   =    1844.860536 
E_coul   =  -23186.705004 E_long   =   -4406.638192 Press    =   -5613.051905
------------ Step           6800 ----- CPU =     1.801004 (sec) -------------
TotEng   =  -22945.519334 KinEng   =      58.610036 Temp     =     162.499607 
PotEng   =  -23004.129370 E_bond   =     371.694934 E_angle  =    2110.584360 
E_dihed  =     162.160878 E_impro  =     129.145218 E_vdwl   =    1837.508193 
E_coul   =  -23195.772742 E_long   =   -4419.450210 Press    =   -6234.295449
------------ Step           6900 ----- CPU =     1.828482 (sec) -------------
TotEng   =  -22961.585884 KinEng   =      58.990931 Temp     =     163.555661 
PotEng   =  -23020.576815 E_bond   =     362.225549 E_angle  =    2084.951894 
E_dihed  =     161.914217 E_impro  =     139.176497 E_vdwl   =    1834.273496 
E_coul   =  -23188.598390 E_long   =   -4414.520080 Press    =   -6212.043116
------------ Step           7000 ----- CPU =     1.856046 (sec) -------------
TotEng   =  -22988.742725 KinEng   =      56.603279 Temp     =     156.935761 
PotEng   =  -23045.346004 E_bond   =     341.647291 E_angle  =    2010.099644 
E_dihed  =     154.751503 E_impro  =     125.603754 E_vdwl   =    1793.969300 
E_coul   =  -23056.095673 E_long   =   -4415.321824 Press    =   -6884.790897
------------ Step           7100 ----- CPU =     1.883791 (sec) -------------
TotEng   =  -22989.803533 KinEng   =      58.656771 Temp     =     162.629183 
PotEng   =  -23048.460304 E_bond   =     351.645577 E_angle  =    2007.250362 
E_dihed  =     159.430789 E_impro  =     144.697365 E_vdwl   =    1837.392295 
E_coul   =  -23118.099734 E_long   =   -4430.776958 Press    =   -5341.882330
------------ Step           7200 ----- CPU =       1.9126 (sec) -------------
TotEng   =  -23005.754956 KinEng   =      60.340125 Temp     =     167.296377 
PotEng   =  -23066.095081 E_bond   =     377.428412 E_angle  =    2041.271423 
E_dihed  =     153.954306 E_impro  =     126.110089 E_vdwl   =    1883.928141 
E_coul   =  -23216.256694 E_long   =   -4432.530757 Press    =   -3195.661008
------------ Step           7300 ----- CPU =     1.941375 (sec) -------------
TotEng   =  -23002.550371 KinEng   =     213.642336 Temp     =     592.335343 
PotEng   =  -23216.192708 E_bond   =     389.882924 E_angle  =    2023.613491 
E_dihed  =     156.443592 E_impro  =     124.531084 E_vdwl   =    1818.943187 
E_coul   =  -23316.086740 E_long   =   -4413.520246 Press    =   -4582.015029
------------ Step           7400 ----- CPU =     1.970433 (sec) -------------
TotEng   =  -23123.420670 KinEng   =     166.114726 Temp     =     460.562382 
PotEng   =  -23289.535396 E_bond   =     380.082967 E_angle  =    1826.102073 
E_dihed  =     157.046399 E_impro  =     111.865281 E_vdwl   =    1840.709839 
E_coul   =  -23197.032109 E_long   =   -4408.309846 Press    =   -4528.124949
------------ Step           7500 ----- CPU =     1.997973 (sec) -------------
TotEng   =  -23249.027020 KinEng   =     125.905314 Temp     =     349.079534 
PotEng   =  -23374.932334 E_bond   =     351.951701 E_angle  =    1833.105407 
E_dihed  =     155.996012 E_impro  =     126.386228 E_vdwl   =    1831.541940 
E_coul   =  -23239.403914 E_long   =   -4434.509708 Press    =   -3873.860370
------------ Step           7600 ----- CPU =     2.026165 (sec) -------------
TotEng   =  -23333.695785 KinEng   =      76.696371 Temp     =     212.644984 
PotEng   =  -23410.392156 E_bond   =     341.168332 E_angle  =    1851.978226 
E_dihed  =     158.067466 E_impro  =     133.080445 E_vdwl   =    1809.396503 
E_coul   =  -23267.324670 E_long   =   -4436.758458 Press    =   -5482.751699
------------ Step           7700 ----- CPU =     2.054991 (sec) -------------
TotEng   =  -23394.723114 KinEng   =      62.917505 Temp     =     174.442306 
PotEng   =  -23457.640619 E_bond   =     349.806550 E_angle  =    1839.503023 
E_dihed  =     155.479709 E_impro  =     104.867379 E_vdwl   =    1803.627830 
E_coul   =  -23278.337515 E_long   =   -4432.587594 Press    =   -6360.674104
------------ Step           7800 ----- CPU =     2.081936 (sec) -------------
TotEng   =  -23416.352646 KinEng   =      49.231384 Temp     =     136.496769 
PotEng   =  -23465.584030 E_bond   =     341.046288 E_angle  =    1826.153868 
E_dihed  =     157.463174 E_impro  =     107.981155 E_vdwl   =    1809.965096 
E_coul   =  -23260.012559 E_long   =   -4448.181053 Press    =   -4871.362186
------------ Step           7900 ----- CPU =     2.109211 (sec) -------------
TotEng   =  -23425.603496 KinEng   =      41.889210 Temp     =     116.140180 
PotEng   =  -23467.492706 E_bond   =     350.866258 E_angle  =    1842.634430 
E_dihed  =     158.470955 E_impro  =     105.169994 E_vdwl   =    1851.463472 
E_coul   =  -23327.986370 E_long   =   -4448.111445 Press    =   -3864.363223
------------ Step           8000 ----- CPU =      2.13642 (sec) -------------
TotEng   =  -23423.802746 KinEng   =      47.336444 Temp     =     131.242943 
PotEng   =  -23471.139190 E_bond   =     362.286514 E_angle  =    1831.255394 
E_dihed  =     162.556714 E_impro  =     107.000084 E_vdwl   =    1853.644889 
E_coul   =  -23338.506888 E_long   =   -4449.375897 Press    =   -4043.034068
------------ Step           8100 ----- CPU =     2.164309 (sec) -------------
TotEng   =  -23410.533666 KinEng   =      48.967382 Temp     =     135.764808 
PotEng   =  -23459.501047 E_bond   =     380.912552 E_angle  =    1814.821940 
E_dihed  =     165.901494 E_impro  =     108.270221 E_vdwl   =    1834.616029 
E_coul   =  -23328.475413 E_long   =   -4435.547870 Press    =   -6223.671908
------------ Step           8200 ----- CPU =     2.192819 (sec) -------------
TotEng   =  -23383.010153 KinEng   =      69.717154 Temp     =     193.294715 
PotEng   =  -23452.727308 E_bond   =     365.444046 E_angle  =    1859.911380 
E_dihed  =     162.978388 E_impro  =     110.673109 E_vdwl   =    1842.850563 
E_coul   =  -23339.866888 E_long   =   -4454.717906 Press    =   -4955.964166
------------ Step           8300 ----- CPU =     2.220208 (sec) -------------
TotEng   =  -23322.304060 KinEng   =      92.245997 Temp     =     255.757194 
PotEng   =  -23414.550057 E_bond   =     371.515934 E_angle  =    1848.909048 
E_dihed  =     159.746440 E_impro  =     125.866457 E_vdwl   =    1789.781760 
E_coul   =  -23252.935468 E_long   =   -4457.434229 Press    =   -8350.213549
------------ Step           8400 ----- CPU =     2.247593 (sec) -------------
TotEng   =  -23260.014822 KinEng   =     118.977937 Temp     =     329.872994 
PotEng   =  -23378.992759 E_bond   =     352.972750 E_angle  =    1836.160531 
E_dihed  =     167.150207 E_impro  =     141.107014 E_vdwl   =    1801.638239 
E_coul   =  -23207.296683 E_long   =   -4470.724816 Press    =   -5993.923496
------------ Step           8500 ----- CPU =     2.275374 (sec) -------------
TotEng   =  -23243.216276 KinEng   =     133.813336 Temp     =     371.004968 
PotEng   =  -23377.029612 E_bond   =     386.921444 E_angle  =    1897.599336 
E_dihed  =     161.237762 E_impro  =     102.676730 E_vdwl   =    1806.321867 
E_coul   =  -23260.829687 E_long   =   -4470.957064 Press    =   -5781.783651
------------ Step           8600 ----- CPU =     2.304371 (sec) -------------
TotEng   =  -23211.584287 KinEng   =     144.767409 Temp     =     401.375749 
PotEng   =  -23356.351696 E_bond   =     366.717655 E_angle  =    1977.298184 
E_dihed  =     163.559745 E_impro  =     128.257728 E_vdwl   =    1931.332380 
E_coul   =  -23439.141166 E_long   =   -4484.376221 Press    =   -1955.252085
------------ Step           8700 ----- CPU =     2.333477 (sec) -------------
TotEng   =  -23255.511402 KinEng   =     120.938027 Temp     =     335.307453 
PotEng   =  -23376.449428 E_bond   =     387.719377 E_angle  =    1942.505685 
E_dihed  =     161.123623 E_impro  =     115.550417 E_vdwl   =    1843.621914 
E_coul   =  -23324.233320 E_long   =   -4502.737124 Press    =   -7257.915546
------------ Step           8800 ----- CPU =     2.361246 (sec) -------------
TotEng   =  -23287.664372 KinEng   =     122.156445 Temp     =     338.685585 
PotEng   =  -23409.820817 E_bond   =     369.169346 E_angle  =    1966.093716 
E_dihed  =     166.878499 E_impro  =     121.323227 E_vdwl   =    1761.718873 
E_coul   =  -23306.101089 E_long   =   -4488.903390 Press    =   -9484.296817
------------ Step           8900 ----- CPU =     2.389077 (sec) -------------
TotEng   =  -23323.218263 KinEng   =     104.454700 Temp     =     289.606507 
PotEng   =  -23427.672963 E_bond   =     367.401019 E_angle  =    1962.046199 
E_dihed  =     175.911219 E_impro  =     143.427324 E_vdwl   =    1805.390420 
E_coul   =  -23391.530960 E_long   =   -4490.318185 Press    =   -6541.763224
------------ Step           9000 ----- CPU =     2.416969 (sec) -------------
TotEng   =  -23358.345779 KinEng   =      82.143439 Temp     =     227.747284 
PotEng   =  -23440.489218 E_bond   =     348.966443 E_angle  =    1873.066923 
E_dihed  =     177.245136 E_impro  =     139.474400 E_vdwl   =    1833.278240 
E_coul   =  -23329.188706 E_long   =   -4483.331653 Press    =   -6094.638303
------------ Step           9100 ----- CPU =     2.446055 (sec) -------------
TotEng   =  -23403.968193 KinEng   =      87.808427 Temp     =     243.453781 
PotEng   =  -23491.776620 E_bond   =     360.365182 E_angle  =    1899.226105 
E_dihed  =     173.208257 E_impro  =     121.040493 E_vdwl   =    1824.733017 
E_coul   =  -23356.536509 E_long   =   -4513.813164 Press    =   -5554.195746
------------ Step           9200 ----- CPU =     2.474864 (sec) -------------
TotEng   =  -23424.461574 KinEng   =      77.827999 Temp     =     215.782485 
PotEng   =  -23502.289572 E_bond   =     342.617935 E_angle  =    1933.167342 
E_dihed  =     161.468952 E_impro  =     126.929951 E_vdwl   =    1848.161520 
E_coul   =  -23382.479837 E_long   =   -4532.155435 Press    =   -5749.029100
------------ Step           9300 ----- CPU =      2.50255 (sec) -------------
TotEng   =  -23457.656173 KinEng   =      73.544923 Temp     =     203.907417 
PotEng   =  -23531.201096 E_bond   =     357.327111 E_angle  =    1856.284953 
E_dihed  =     161.715604 E_impro  =      97.977855 E_vdwl   =    1816.544388 
E_coul   =  -23287.329175 E_long   =   -4533.721831 Press    =   -6677.866641
------------ Step           9400 ----- CPU =     2.530473 (sec) -------------
TotEng   =  -23435.499418 KinEng   =      77.506812 Temp     =     214.891976 
PotEng   =  -23513.006230 E_bond   =     370.028141 E_angle  =    1847.108508 
E_dihed  =     160.424792 E_impro  =     125.446250 E_vdwl   =    1770.381467 
E_coul   =  -23250.398430 E_long   =   -4535.996958 Press    =   -8238.442473
------------ Step           9500 ----- CPU =     2.557896 (sec) -------------
TotEng   =  -23440.934113 KinEng   =      76.038328 Temp     =     210.820524 
PotEng   =  -23516.972441 E_bond   =     363.839725 E_angle  =    1848.712120 
E_dihed  =     164.999106 E_impro  =     113.368784 E_vdwl   =    1773.264721 
E_coul   =  -23233.714960 E_long   =   -4547.441937 Press    =   -8519.775478
------------ Step           9600 ----- CPU =     2.586859 (sec) -------------
TotEng   =  -23410.455790 KinEng   =      81.323462 Temp     =     225.473853 
PotEng   =  -23491.779251 E_bond   =     380.294102 E_angle  =    1882.508122 
E_dihed  =     165.452268 E_impro  =     121.505663 E_vdwl   =    1783.770670 
E_coul   =  -23276.266688 E_long   =   -4549.043387 Press    =   -9620.810640
------------ Step           9700 ----- CPU =     2.614566 (sec) -------------
TotEng   =  -23372.508873 KinEng   =      99.467470 Temp     =     275.779133 
PotEng   =  -23471.976344 E_bond   =     358.972250 E_angle  =    1886.780152 
E_dihed  =     160.829598 E_impro  =     150.886241 E_vdwl   =    1801.187155 
E_coul   =  -23301.131240 E_long   =   -4529.500500 Press    =   -6930.109980
------------ Step           9800 ----- CPU =     2.641658 (sec) -------------
TotEng   =  -23355.795030 KinEng   =     107.449773 Temp     =     297.910514 
PotEng   =  -23463.244803 E_bond   =     369.213274 E_angle  =    1886.482015 
E_dihed  =     164.759446 E_impro  =     123.541671 E_vdwl   =    1724.884673 
E_coul   =  -23210.244726 E_long   =   -4521.881156 Press    =  -10986.804294
------------ Step           9900 ----- CPU =     2.669073 (sec) -------------
TotEng   =  -23336.943903 KinEng   =     126.150585 Temp     =     349.759563 
PotEng   =  -23463.094488 E_bond   =     343.194047 E_angle  =    1884.805812 
E_dihed  =     162.226197 E_impro  =     109.108528 E_vdwl   =    1781.761721 
E_coul   =  -23217.077862 E_long   =   -4527.112931 Press    =   -7992.079075
------------ Step          10000 ----- CPU =     2.696473 (sec) -------------
TotEng   =  -23298.454545 KinEng   =     134.362877 Temp     =     372.528602 
PotEng   =  -23432.817422 E_bond   =     362.348309 E_angle  =    1957.279142 
E_dihed  =     163.058166 E_impro  =     129.058111 E_vdwl   =    1718.487225 
E_coul   =  -23256.001538 E_long   =   -4507.046837 Press    =   -9431.383692
Loop time of 2.6965 on 8 procs for 10000 steps with 122 atoms

Performance: 160.208 ns/day, 0.150 hours/ns, 3708.510 timesteps/s, 452.438 katom-step/s
99.7% CPU use with 8 MPI tasks x 1 OpenMP threads

MPI task timing breakdown:
Section |  min time  |  avg time  |  max time  |%varavg| %total
---------------------------------------------------------------
Pair    | 0.015012   | 0.095973   | 0.35807    |  38.5 |  3.56
Bond    | 0.0080615  | 0.040143   | 0.13836    |  23.7 |  1.49
Kspace  | 1.5877     | 1.8614     | 1.9998     |   9.1 | 69.03
Neigh   | 0.014823   | 0.015456   | 0.015771   |   0.3 |  0.57
Comm    | 0.43068    | 0.55782    | 0.68959    |  10.9 | 20.69
Output  | 0.0041179  | 0.0042259  | 0.0048623  |   0.4 |  0.16
Modify  | 0.021722   | 0.10829    | 0.2957     |  29.4 |  4.02
Other   |            | 0.01316    |            |       |  0.49

Nlocal:          15.25 ave          56 max           0 min
Histogram: 6 0 0 0 0 0 0 0 0 2
Nghost:        542.375 ave         844 max         276 min
Histogram: 2 0 0 0 4 0 0 0 0 2
Neighs:        1061.62 ave        4355 max           0 min
Histogram: 6 0 0 0 0 0 0 0 1 1

Total # of neighbors = 8493
Ave neighs/atom = 69.614754
Ave special neighs/atom = 10.967213
Neighbor list builds = 81
Dangerous builds = 0
unfix                4
undump               1

print                .
.
print                ================================================
================================================
print                "NPT dynamics with an isotropic pressure of 1atm."
NPT dynamics with an isotropic pressure of 1atm.
print                ================================================
================================================
print                .
.

fix                  2 all nvt temp ${rtemp} ${rtemp} 100.0
fix                  2 all nvt temp 298 ${rtemp} 100.0
fix                  2 all nvt temp 298 298 100.0
thermo               100
dump                 1 all custom 100 ${sname}.npt.lammpstrj id type xu yu zu vx vy vz
dump                 1 all custom 100 combined_mc.npt.lammpstrj id type xu yu zu vx vy vz
run                  500000 # run for 15 ns
PPPM initialization ...
  using 12-bit tables for long-range coulomb (src/kspace.cpp:342)
  G vector (1/distance) = 0.27621456
  grid = 12 12 12
  stencil order = 5
  estimated absolute RMS force accuracy = 0.014812192
  estimated relative force accuracy = 4.4606477e-05
  using double precision FFTW3
  3d grid and FFT values/proc = 2197 288
Generated 28 of 28 mixed pair_coeff terms from geometric mixing rule
Per MPI rank memory allocation (min/avg/max) = 29.61 | 30.67 | 31.24 Mbytes
------------ Step          10000 ----- CPU =            0 (sec) -------------
TotEng   =  -23298.454545 KinEng   =     134.362877 Temp     =     372.528602 
PotEng   =  -23432.817422 E_bond   =     362.348309 E_angle  =    1957.279142 
E_dihed  =     163.058166 E_impro  =     129.058111 E_vdwl   =    1718.487225 
E_coul   =  -23256.001538 E_long   =   -4507.046837 Press    =   -9431.383692
------------ Step          10100 ----- CPU =   0.02925648 (sec) -------------
TotEng   =  -23301.388848 KinEng   =     152.149981 Temp     =     421.844344 
PotEng   =  -23453.538829 E_bond   =     383.461761 E_angle  =    1942.026381 
E_dihed  =     168.401993 E_impro  =     106.937172 E_vdwl   =    1800.120573 
E_coul   =  -23346.363376 E_long   =   -4508.123333 Press    =   -6950.008074
------------ Step          10200 ----- CPU =   0.05806908 (sec) -------------
TotEng   =  -23314.980550 KinEng   =     127.097094 Temp     =     352.383811 
PotEng   =  -23442.077644 E_bond   =     411.959254 E_angle  =    1902.394371 
E_dihed  =     170.751095 E_impro  =     113.678189 E_vdwl   =    1718.789153 
E_coul   =  -23272.337972 E_long   =   -4487.311734 Press    =   -9569.408304
------------ Step          10300 ----- CPU =   0.08603887 (sec) -------------
TotEng   =  -23317.034315 KinEng   =     151.321995 Temp     =     419.548706 
PotEng   =  -23468.356310 E_bond   =     372.630180 E_angle  =    1899.380770 
E_dihed  =     168.971001 E_impro  =     114.441650 E_vdwl   =    1810.161288 
E_coul   =  -23312.226802 E_long   =   -4521.714398 Press    =   -7113.684609
------------ Step          10400 ----- CPU =    0.1142667 (sec) -------------
TotEng   =  -23327.948401 KinEng   =     193.378774 Temp     =     536.153482 
PotEng   =  -23521.327176 E_bond   =     392.837767 E_angle  =    1873.786853 
E_dihed  =     167.507328 E_impro  =     142.294087 E_vdwl   =    1757.435922 
E_coul   =  -23342.339931 E_long   =   -4512.849202 Press    =   -8615.343748
------------ Step          10500 ----- CPU =    0.1426882 (sec) -------------
TotEng   =  -23366.389913 KinEng   =     170.348002 Temp     =     472.299376 
PotEng   =  -23536.737915 E_bond   =     398.132093 E_angle  =    1825.155652 
E_dihed  =     164.839829 E_impro  =     146.650574 E_vdwl   =    1724.899556 
E_coul   =  -23271.630332 E_long   =   -4524.785286 Press    =  -10155.698604
------------ Step          10600 ----- CPU =    0.1715648 (sec) -------------
TotEng   =  -23435.010317 KinEng   =     139.073048 Temp     =     385.587814 
PotEng   =  -23574.083365 E_bond   =     390.155226 E_angle  =    1840.143904 
E_dihed  =     160.558793 E_impro  =     113.281487 E_vdwl   =    1721.474689 
E_coul   =  -23282.237565 E_long   =   -4517.459899 Press    =  -10833.155491
------------ Step          10700 ----- CPU =    0.1988828 (sec) -------------
TotEng   =  -23462.064387 KinEng   =     128.343425 Temp     =     355.839335 
PotEng   =  -23590.407813 E_bond   =     384.728957 E_angle  =    1874.244084 
E_dihed  =     161.986594 E_impro  =     106.161712 E_vdwl   =    1806.889238 
E_coul   =  -23406.193122 E_long   =   -4518.225275 Press    =   -6974.294580
------------ Step          10800 ----- CPU =    0.2261892 (sec) -------------
TotEng   =  -23452.390320 KinEng   =     117.746625 Temp     =     326.459113 
PotEng   =  -23570.136945 E_bond   =     356.524967 E_angle  =    1860.845911 
E_dihed  =     168.783935 E_impro  =     144.914416 E_vdwl   =    1745.300191 
E_coul   =  -23328.629291 E_long   =   -4517.877074 Press    =   -9365.117741
------------ Step          10900 ----- CPU =    0.2537252 (sec) -------------
TotEng   =  -23495.795864 KinEng   =     122.232325 Temp     =     338.895968 
PotEng   =  -23618.028190 E_bond   =     371.321524 E_angle  =    1815.986532 
E_dihed  =     164.581005 E_impro  =     114.196962 E_vdwl   =    1788.039015 
E_coul   =  -23339.982601 E_long   =   -4532.170627 Press    =   -7938.139173
------------ Step          11000 ----- CPU =    0.2824191 (sec) -------------
TotEng   =  -23510.995042 KinEng   =     111.203092 Temp     =     308.316802 
PotEng   =  -23622.198134 E_bond   =     359.677756 E_angle  =    1863.120648 
E_dihed  =     162.345589 E_impro  =     114.787649 E_vdwl   =    1827.246275 
E_coul   =  -23437.609455 E_long   =   -4511.766596 Press    =   -7443.268780
------------ Step          11100 ----- CPU =    0.3114596 (sec) -------------
TotEng   =  -23484.517584 KinEng   =     105.001733 Temp     =     291.123187 
PotEng   =  -23589.519317 E_bond   =     373.556018 E_angle  =    1865.766223 
E_dihed  =     168.495667 E_impro  =     140.459948 E_vdwl   =    1801.991332 
E_coul   =  -23433.206072 E_long   =   -4506.582434 Press    =   -8159.395467
------------ Step          11200 ----- CPU =    0.3390296 (sec) -------------
TotEng   =  -23522.845477 KinEng   =      98.693952 Temp     =     273.634509 
PotEng   =  -23621.539429 E_bond   =     373.369616 E_angle  =    1786.294644 
E_dihed  =     166.167143 E_impro  =     108.999179 E_vdwl   =    1776.651747 
E_coul   =  -23320.450487 E_long   =   -4512.571272 Press    =   -8770.556556
------------ Step          11300 ----- CPU =    0.3669053 (sec) -------------
TotEng   =  -23510.113650 KinEng   =     108.594768 Temp     =     301.085077 
PotEng   =  -23618.708418 E_bond   =     387.441753 E_angle  =    1856.954610 
E_dihed  =     169.419938 E_impro  =     126.929867 E_vdwl   =    1813.175312 
E_coul   =  -23467.372784 E_long   =   -4505.257114 Press    =   -6798.156605
------------ Step          11400 ----- CPU =     0.394414 (sec) -------------
TotEng   =  -23521.764641 KinEng   =      95.995117 Temp     =     266.151839 
PotEng   =  -23617.759758 E_bond   =     368.938847 E_angle  =    1771.323783 
E_dihed  =     171.365563 E_impro  =     119.617512 E_vdwl   =    1777.462274 
E_coul   =  -23320.269640 E_long   =   -4506.198097 Press    =   -8412.353928
------------ Step          11500 ----- CPU =    0.4230402 (sec) -------------
TotEng   =  -23519.327530 KinEng   =      96.428479 Temp     =     267.353358 
PotEng   =  -23615.756009 E_bond   =     383.894655 E_angle  =    1834.159459 
E_dihed  =     172.163120 E_impro  =     111.966195 E_vdwl   =    1733.079895 
E_coul   =  -23345.589190 E_long   =   -4505.430144 Press    =  -10948.847940
------------ Step          11600 ----- CPU =    0.4513608 (sec) -------------
TotEng   =  -23478.556689 KinEng   =     101.663486 Temp     =     281.867708 
PotEng   =  -23580.220174 E_bond   =     362.355275 E_angle  =    1815.197000 
E_dihed  =     166.714489 E_impro  =     141.129403 E_vdwl   =    1804.016914 
E_coul   =  -23338.794652 E_long   =   -4530.838603 Press    =   -6460.540732
------------ Step          11700 ----- CPU =    0.4788827 (sec) -------------
TotEng   =  -23500.050796 KinEng   =     112.767302 Temp     =     312.653661 
PotEng   =  -23612.818098 E_bond   =     364.704556 E_angle  =    1848.435163 
E_dihed  =     164.038151 E_impro  =     116.515453 E_vdwl   =    1766.771143 
E_coul   =  -23378.667015 E_long   =   -4494.615548 Press    =   -9755.040539
------------ Step          11800 ----- CPU =    0.5068066 (sec) -------------
TotEng   =  -23481.698709 KinEng   =     111.556591 Temp     =     309.296897 
PotEng   =  -23593.255300 E_bond   =     382.292698 E_angle  =    1790.940590 
E_dihed  =     164.112626 E_impro  =     112.507479 E_vdwl   =    1757.742596 
E_coul   =  -23276.943716 E_long   =   -4523.907572 Press    =   -7891.935064
------------ Step          11900 ----- CPU =    0.5343165 (sec) -------------
TotEng   =  -23438.216353 KinEng   =     129.342623 Temp     =     358.609666 
PotEng   =  -23567.558975 E_bond   =     376.567635 E_angle  =    1854.011203 
E_dihed  =     166.860719 E_impro  =     150.803427 E_vdwl   =    1774.687988 
E_coul   =  -23363.767842 E_long   =   -4526.722104 Press    =   -9150.589246
------------ Step          12000 ----- CPU =     0.563258 (sec) -------------
TotEng   =  -23467.674946 KinEng   =     124.033525 Temp     =     343.889894 
PotEng   =  -23591.708471 E_bond   =     369.639116 E_angle  =    1862.314585 
E_dihed  =     169.166239 E_impro  =     109.081058 E_vdwl   =    1800.452686 
E_coul   =  -23387.414654 E_long   =   -4514.947500 Press    =   -6403.554923
------------ Step          12100 ----- CPU =    0.5909927 (sec) -------------
TotEng   =  -23480.956278 KinEng   =     118.687567 Temp     =     329.067927 
PotEng   =  -23599.643845 E_bond   =     387.580791 E_angle  =    1833.169265 
E_dihed  =     170.778716 E_impro  =     112.604133 E_vdwl   =    1767.938656 
E_coul   =  -23359.562759 E_long   =   -4512.152646 Press    =   -7759.714112
------------ Step          12200 ----- CPU =    0.6185322 (sec) -------------
TotEng   =  -23462.059135 KinEng   =     118.158737 Temp     =     327.601716 
PotEng   =  -23580.217872 E_bond   =     378.950597 E_angle  =    1790.473931 
E_dihed  =     165.773128 E_impro  =     136.927898 E_vdwl   =    1725.462502 
E_coul   =  -23262.630624 E_long   =   -4515.175305 Press    =  -11436.330925
------------ Step          12300 ----- CPU =    0.6460206 (sec) -------------
TotEng   =  -23501.799922 KinEng   =     103.871541 Temp     =     287.989664 
PotEng   =  -23605.671462 E_bond   =     334.505206 E_angle  =    1834.045492 
E_dihed  =     163.929568 E_impro  =     112.070051 E_vdwl   =    1792.895733 
E_coul   =  -23341.803752 E_long   =   -4501.313759 Press    =   -7145.229711
------------ Step          12400 ----- CPU =     0.673958 (sec) -------------
TotEng   =  -23492.142559 KinEng   =     118.876612 Temp     =     329.592065 
PotEng   =  -23611.019171 E_bond   =     367.782731 E_angle  =    1826.759388 
E_dihed  =     166.026285 E_impro  =     126.829994 E_vdwl   =    1735.669410 
E_coul   =  -23305.974539 E_long   =   -4528.112439 Press    =  -11469.809180
------------ Step          12500 ----- CPU =    0.7027092 (sec) -------------
TotEng   =  -23486.501504 KinEng   =     113.208045 Temp     =     313.875646 
PotEng   =  -23599.709550 E_bond   =     394.136890 E_angle  =    1831.092237 
E_dihed  =     164.073077 E_impro  =     125.811224 E_vdwl   =    1748.428398 
E_coul   =  -23353.173905 E_long   =   -4510.077471 Press    =   -8435.394053
------------ Step          12600 ----- CPU =    0.7303103 (sec) -------------
TotEng   =  -23515.686848 KinEng   =     104.693308 Temp     =     290.268059 
PotEng   =  -23620.380155 E_bond   =     386.959539 E_angle  =    1836.446095 
E_dihed  =     164.070731 E_impro  =     110.090605 E_vdwl   =    1796.743613 
E_coul   =  -23411.123571 E_long   =   -4503.567168 Press    =   -7098.238766
------------ Step          12700 ----- CPU =    0.7575175 (sec) -------------
TotEng   =  -23498.746308 KinEng   =     106.742998 Temp     =     295.950940 
PotEng   =  -23605.489306 E_bond   =     373.532674 E_angle  =    1817.543152 
E_dihed  =     172.564862 E_impro  =     127.352174 E_vdwl   =    1778.823480 
E_coul   =  -23357.052249 E_long   =   -4518.253400 Press    =   -8707.227587
------------ Step          12800 ----- CPU =    0.7847737 (sec) -------------
TotEng   =  -23478.641309 KinEng   =     102.283111 Temp     =     283.585653 
PotEng   =  -23580.924420 E_bond   =     403.431103 E_angle  =    1879.899554 
E_dihed  =     168.163030 E_impro  =     147.520043 E_vdwl   =    1751.086058 
E_coul   =  -23418.701281 E_long   =   -4512.322927 Press    =   -8790.411232
------------ Step          12900 ----- CPU =    0.8133408 (sec) -------------
TotEng   =  -23507.903185 KinEng   =     107.595982 Temp     =     298.315886 
PotEng   =  -23615.499167 E_bond   =     415.745811 E_angle  =    1782.479602 
E_dihed  =     164.250902 E_impro  =     107.543127 E_vdwl   =    1809.612965 
E_coul   =  -23374.468809 E_long   =   -4520.662765 Press    =   -7723.917863
------------ Step          13000 ----- CPU =    0.8415187 (sec) -------------
TotEng   =  -23473.941656 KinEng   =     114.891672 Temp     =     318.543596 
PotEng   =  -23588.833328 E_bond   =     376.765370 E_angle  =    1818.568587 
E_dihed  =     165.474925 E_impro  =     141.847820 E_vdwl   =    1796.684128 
E_coul   =  -23360.614381 E_long   =   -4527.559777 Press    =   -8995.356050
------------ Step          13100 ----- CPU =    0.8687535 (sec) -------------
TotEng   =  -23472.024243 KinEng   =      94.745437 Temp     =     262.687029 
PotEng   =  -23566.769679 E_bond   =     360.735544 E_angle  =    1904.675045 
E_dihed  =     165.767727 E_impro  =     139.174965 E_vdwl   =    1772.413557 
E_coul   =  -23393.342662 E_long   =   -4516.193856 Press    =   -8062.432126
------------ Step          13200 ----- CPU =    0.8959038 (sec) -------------
TotEng   =  -23496.623067 KinEng   =     121.059521 Temp     =     335.644303 
PotEng   =  -23617.682588 E_bond   =     384.510899 E_angle  =    1823.798116 
E_dihed  =     166.520737 E_impro  =     113.494138 E_vdwl   =    1727.711786 
E_coul   =  -23316.117714 E_long   =   -4517.600551 Press    =   -9843.106904
------------ Step          13300 ----- CPU =    0.9230032 (sec) -------------
TotEng   =  -23464.277420 KinEng   =     119.643000 Temp     =     331.716918 
PotEng   =  -23583.920420 E_bond   =     372.950637 E_angle  =    1806.735161 
E_dihed  =     166.961139 E_impro  =     147.861647 E_vdwl   =    1789.774435 
E_coul   =  -23354.559174 E_long   =   -4513.644265 Press    =   -7772.306254
------------ Step          13400 ----- CPU =    0.9520198 (sec) -------------
TotEng   =  -23497.731197 KinEng   =     102.694772 Temp     =     284.727006 
PotEng   =  -23600.425969 E_bond   =     368.185665 E_angle  =    1838.938595 
E_dihed  =     165.376910 E_impro  =     117.150852 E_vdwl   =    1800.225636 
E_coul   =  -23378.750247 E_long   =   -4511.553380 Press    =   -6490.012582
------------ Step          13500 ----- CPU =    0.9791589 (sec) -------------
TotEng   =  -23506.541186 KinEng   =      96.971523 Temp     =     268.858979 
PotEng   =  -23603.512709 E_bond   =     402.917471 E_angle  =    1820.262085 
E_dihed  =     170.745435 E_impro  =     113.109603 E_vdwl   =    1763.985907 
E_coul   =  -23357.129584 E_long   =   -4517.403627 Press    =   -8592.762446
------------ Step          13600 ----- CPU =     1.006348 (sec) -------------
TotEng   =  -23507.243164 KinEng   =      96.073123 Temp     =     266.368115 
PotEng   =  -23603.316287 E_bond   =     391.502048 E_angle  =    1883.897375 
E_dihed  =     163.892506 E_impro  =     117.506963 E_vdwl   =    1841.964369 
[...]
E_dihed  =     165.597202 E_impro  =     115.148472 E_vdwl   =    1738.503762 
E_coul   =  -23306.225994 E_long   =   -4509.909036 Press    =   -9544.819295
------------ Step         505400 ----- CPU =     138.5679 (sec) -------------
TotEng   =  -23479.114531 KinEng   =     111.729694 Temp     =     309.776835 
PotEng   =  -23590.844225 E_bond   =     379.608826 E_angle  =    1805.014479 
E_dihed  =     167.628764 E_impro  =     130.305988 E_vdwl   =    1769.411943 
E_coul   =  -23331.218325 E_long   =   -4511.595901 Press    =   -8218.532579
------------ Step         505500 ----- CPU =     138.5951 (sec) -------------
TotEng   =  -23458.378068 KinEng   =      95.735745 Temp     =     265.432716 
PotEng   =  -23554.113813 E_bond   =     431.441113 E_angle  =    1843.773522 
E_dihed  =     164.618195 E_impro  =     147.318203 E_vdwl   =    1755.569996 
E_coul   =  -23378.949449 E_long   =   -4517.885393 Press    =   -8767.647638
------------ Step         505600 ----- CPU =     138.6222 (sec) -------------
TotEng   =  -23481.190472 KinEng   =     122.362198 Temp     =     339.256048 
PotEng   =  -23603.552670 E_bond   =     378.206272 E_angle  =    1853.491327 
E_dihed  =     169.627285 E_impro  =     129.076044 E_vdwl   =    1815.051353 
E_coul   =  -23432.737134 E_long   =   -4516.267819 Press    =   -7166.587537
------------ Step         505700 ----- CPU =     138.6493 (sec) -------------
TotEng   =  -23500.240646 KinEng   =     105.231947 Temp     =     291.761466 
PotEng   =  -23605.472593 E_bond   =     394.177229 E_angle  =    1790.974050 
E_dihed  =     161.396621 E_impro  =     122.352874 E_vdwl   =    1748.421687 
E_coul   =  -23300.613847 E_long   =   -4522.181208 Press    =   -9628.419577
------------ Step         505800 ----- CPU =     138.6774 (sec) -------------
TotEng   =  -23507.894923 KinEng   =     113.178539 Temp     =     313.793839 
PotEng   =  -23621.073462 E_bond   =     410.149200 E_angle  =    1787.520458 
E_dihed  =     165.494529 E_impro  =     112.195621 E_vdwl   =    1798.010022 
E_coul   =  -23380.513767 E_long   =   -4513.929524 Press    =   -9300.555234
------------ Step         505900 ----- CPU =      138.706 (sec) -------------
TotEng   =  -23484.140226 KinEng   =     106.348156 Temp     =     294.856217 
PotEng   =  -23590.488381 E_bond   =     369.716607 E_angle  =    1859.419613 
E_dihed  =     165.715607 E_impro  =     136.177249 E_vdwl   =    1798.559852 
E_coul   =  -23405.809242 E_long   =   -4514.268067 Press    =   -9220.147081
------------ Step         506000 ----- CPU =     138.7345 (sec) -------------
TotEng   =  -23476.631497 KinEng   =      98.545258 Temp     =     273.222248 
PotEng   =  -23575.176756 E_bond   =     382.442531 E_angle  =    1895.165806 
E_dihed  =     163.492260 E_impro  =     144.808234 E_vdwl   =    1778.358847 
E_coul   =  -23410.850704 E_long   =   -4528.593730 Press    =   -8818.775800
------------ Step         506100 ----- CPU =     138.7616 (sec) -------------
TotEng   =  -23473.293730 KinEng   =     117.781878 Temp     =     326.556852 
PotEng   =  -23591.075608 E_bond   =     364.964580 E_angle  =    1799.499891 
E_dihed  =     169.596243 E_impro  =     145.302453 E_vdwl   =    1732.119490 
E_coul   =  -23282.527039 E_long   =   -4520.031226 Press    =   -9698.164353
------------ Step         506200 ----- CPU =     138.7887 (sec) -------------
TotEng   =  -23496.019948 KinEng   =     119.835887 Temp     =     332.251709 
PotEng   =  -23615.855835 E_bond   =     365.043183 E_angle  =    1832.912667 
E_dihed  =     162.281814 E_impro  =     113.171724 E_vdwl   =    1753.607910 
E_coul   =  -23328.746942 E_long   =   -4514.126190 Press    =   -9208.689884
------------ Step         506300 ----- CPU =     138.8158 (sec) -------------
TotEng   =  -23509.821836 KinEng   =      99.698597 Temp     =     276.419944 
PotEng   =  -23609.520433 E_bond   =     395.466056 E_angle  =    1798.360149 
E_dihed  =     159.928858 E_impro  =     110.153438 E_vdwl   =    1761.469704 
E_coul   =  -23311.867583 E_long   =   -4523.031054 Press    =   -9513.143499
------------ Step         506400 ----- CPU =     138.8438 (sec) -------------
TotEng   =  -23487.685749 KinEng   =      88.719384 Temp     =     245.979462 
PotEng   =  -23576.405133 E_bond   =     387.840838 E_angle  =    1798.606814 
E_dihed  =     161.317098 E_impro  =     152.208101 E_vdwl   =    1832.761958 
E_coul   =  -23392.842380 E_long   =   -4516.297562 Press    =   -7119.032511
------------ Step         506500 ----- CPU =     138.8723 (sec) -------------
TotEng   =  -23521.712563 KinEng   =     106.074308 Temp     =     294.096960 
PotEng   =  -23627.786871 E_bond   =     397.106488 E_angle  =    1796.274834 
E_dihed  =     167.928418 E_impro  =     108.322083 E_vdwl   =    1764.548719 
E_coul   =  -23352.821745 E_long   =   -4509.145668 Press    =   -9394.909855
------------ Step         506600 ----- CPU =     138.8994 (sec) -------------
TotEng   =  -23503.317219 KinEng   =     104.706611 Temp     =     290.304943 
PotEng   =  -23608.023830 E_bond   =     428.972176 E_angle  =    1822.349176 
E_dihed  =     164.514978 E_impro  =     122.894627 E_vdwl   =    1761.721128 
E_coul   =  -23398.067259 E_long   =   -4510.408655 Press    =   -8692.036437
------------ Step         506700 ----- CPU =     138.9264 (sec) -------------
TotEng   =  -23499.029751 KinEng   =     103.560558 Temp     =     287.127447 
PotEng   =  -23602.590309 E_bond   =     376.738296 E_angle  =    1854.145030 
E_dihed  =     162.999096 E_impro  =     120.410046 E_vdwl   =    1727.685920 
E_coul   =  -23332.914437 E_long   =   -4511.654261 Press    =   -9164.449041
------------ Step         506800 ----- CPU =     138.9535 (sec) -------------
TotEng   =  -23489.657552 KinEng   =     111.224205 Temp     =     308.375338 
PotEng   =  -23600.881758 E_bond   =     404.368484 E_angle  =    1825.615865 
E_dihed  =     169.727013 E_impro  =     133.951264 E_vdwl   =    1778.601085 
E_coul   =  -23386.238536 E_long   =   -4526.906932 Press    =   -9306.183743
------------ Step         506900 ----- CPU =     138.9815 (sec) -------------
TotEng   =  -23475.357031 KinEng   =     114.331058 Temp     =     316.989262 
PotEng   =  -23589.688089 E_bond   =     386.931679 E_angle  =    1854.128841 
E_dihed  =     167.988047 E_impro  =     131.923567 E_vdwl   =    1817.257055 
E_coul   =  -23424.034387 E_long   =   -4523.882890 Press    =   -9107.504712
------------ Step         507000 ----- CPU =       139.01 (sec) -------------
TotEng   =  -23485.115364 KinEng   =     107.756419 Temp     =     298.760707 
PotEng   =  -23592.871783 E_bond   =     390.609356 E_angle  =    1811.711442 
E_dihed  =     168.748794 E_impro  =     123.754250 E_vdwl   =    1851.844723 
E_coul   =  -23440.228751 E_long   =   -4499.311597 Press    =   -5248.470480
------------ Step         507100 ----- CPU =     139.0372 (sec) -------------
TotEng   =  -23487.770941 KinEng   =     108.250154 Temp     =     300.129614 
PotEng   =  -23596.021095 E_bond   =     415.633381 E_angle  =    1811.256355 
E_dihed  =     167.250091 E_impro  =     112.510315 E_vdwl   =    1736.685963 
E_coul   =  -23314.801296 E_long   =   -4524.555904 Press    =  -10733.078673
------------ Step         507200 ----- CPU =     139.0645 (sec) -------------
TotEng   =  -23478.876325 KinEng   =     116.363679 Temp     =     322.624818 
PotEng   =  -23595.240004 E_bond   =     394.719554 E_angle  =    1823.230805 
E_dihed  =     163.536722 E_impro  =     124.554664 E_vdwl   =    1786.226767 
E_coul   =  -23382.729164 E_long   =   -4504.779352 Press    =   -7448.315532
------------ Step         507300 ----- CPU =     139.0915 (sec) -------------
TotEng   =  -23470.371696 KinEng   =     103.789074 Temp     =     287.761020 
PotEng   =  -23574.160769 E_bond   =     381.982735 E_angle  =    1815.091546 
E_dihed  =     163.737290 E_impro  =     139.722206 E_vdwl   =    1763.937356 
E_coul   =  -23308.944196 E_long   =   -4529.687706 Press    =   -9217.099757
------------ Step         507400 ----- CPU =     139.1195 (sec) -------------
TotEng   =  -23492.536152 KinEng   =      99.854877 Temp     =     276.853239 
PotEng   =  -23592.391029 E_bond   =     411.719305 E_angle  =    1822.164203 
E_dihed  =     170.506716 E_impro  =     121.830096 E_vdwl   =    1752.963309 
E_coul   =  -23361.875784 E_long   =   -4509.698873 Press    =   -8354.585487
------------ Step         507500 ----- CPU =     139.1482 (sec) -------------
TotEng   =  -23507.565171 KinEng   =     105.258323 Temp     =     291.834595 
PotEng   =  -23612.823494 E_bond   =     389.749355 E_angle  =    1771.700009 
E_dihed  =     162.900594 E_impro  =     112.405538 E_vdwl   =    1741.797605 
E_coul   =  -23284.092795 E_long   =   -4507.283800 Press    =   -9008.563577
------------ Step         507600 ----- CPU =     139.1767 (sec) -------------
TotEng   =  -23489.205096 KinEng   =     102.902475 Temp     =     285.302876 
PotEng   =  -23592.107571 E_bond   =     390.092672 E_angle  =    1846.925662 
E_dihed  =     166.557105 E_impro  =     123.663353 E_vdwl   =    1781.333678 
E_coul   =  -23387.831535 E_long   =   -4512.848507 Press    =   -7842.537457
------------ Step         507700 ----- CPU =     139.2038 (sec) -------------
TotEng   =  -23480.263584 KinEng   =      98.972303 Temp     =     274.406254 
PotEng   =  -23579.235887 E_bond   =     380.773707 E_angle  =    1811.064655 
E_dihed  =     163.600040 E_impro  =     144.466862 E_vdwl   =    1749.981697 
E_coul   =  -23307.915807 E_long   =   -4521.207041 Press    =  -10386.672778
------------ Step         507800 ----- CPU =     139.2309 (sec) -------------
TotEng   =  -23515.898428 KinEng   =      96.898072 Temp     =     268.655332 
PotEng   =  -23612.796500 E_bond   =     377.882295 E_angle  =    1790.043308 
E_dihed  =     165.879191 E_impro  =     115.840487 E_vdwl   =    1821.720852 
E_coul   =  -23373.215260 E_long   =   -4510.947372 Press    =   -7508.814715
------------ Step         507900 ----- CPU =      139.258 (sec) -------------
TotEng   =  -23484.181018 KinEng   =      94.820704 Temp     =     262.895711 
PotEng   =  -23579.001721 E_bond   =     366.493836 E_angle  =    1825.916432 
E_dihed  =     165.247799 E_impro  =     151.873524 E_vdwl   =    1751.509355 
E_coul   =  -23317.663944 E_long   =   -4522.378723 Press    =   -8881.646027
------------ Step         508000 ----- CPU =     139.2861 (sec) -------------
TotEng   =  -23497.482673 KinEng   =      91.836902 Temp     =     254.622954 
PotEng   =  -23589.319574 E_bond   =     377.370244 E_angle  =    1851.865881 
E_dihed  =     168.915000 E_impro  =     119.008753 E_vdwl   =    1800.290879 
E_coul   =  -23386.161442 E_long   =   -4520.608890 Press    =   -8497.619600
------------ Step         508100 ----- CPU =     139.3146 (sec) -------------
TotEng   =  -23479.149437 KinEng   =      93.341236 Temp     =     258.793806 
PotEng   =  -23572.490673 E_bond   =     372.069778 E_angle  =    1845.853564 
E_dihed  =     164.544920 E_impro  =     147.047340 E_vdwl   =    1876.125282 
E_coul   =  -23457.709244 E_long   =   -4520.422314 Press    =   -4741.657481
------------ Step         508200 ----- CPU =     139.3432 (sec) -------------
TotEng   =  -23506.221037 KinEng   =     102.091841 Temp     =     283.055346 
PotEng   =  -23608.312878 E_bond   =     422.461293 E_angle  =    1820.331434 
E_dihed  =     166.631941 E_impro  =     107.056097 E_vdwl   =    1773.423367 
E_coul   =  -23383.599415 E_long   =   -4514.617595 Press    =  -10098.343332
------------ Step         508300 ----- CPU =     139.3718 (sec) -------------
TotEng   =  -23471.089534 KinEng   =     121.027036 Temp     =     335.554235 
PotEng   =  -23592.116569 E_bond   =     369.919921 E_angle  =    1856.147830 
E_dihed  =     163.617134 E_impro  =     125.378277 E_vdwl   =    1785.867297 
E_coul   =  -23392.991648 E_long   =   -4500.055379 Press    =   -7650.583630
------------ Step         508400 ----- CPU =     139.3989 (sec) -------------
TotEng   =  -23467.849777 KinEng   =     108.245676 Temp     =     300.117200 
PotEng   =  -23576.095453 E_bond   =     385.333452 E_angle  =    1887.434005 
E_dihed  =     171.643174 E_impro  =     121.694365 E_vdwl   =    1821.952198 
E_coul   =  -23441.451754 E_long   =   -4522.700892 Press    =   -7831.727817
------------ Step         508500 ----- CPU =      139.426 (sec) -------------
TotEng   =  -23455.755014 KinEng   =     123.615071 Temp     =     342.729707 
PotEng   =  -23579.370085 E_bond   =     399.629808 E_angle  =    1818.351134 
E_dihed  =     167.960913 E_impro  =     140.575894 E_vdwl   =    1777.693712 
E_coul   =  -23357.114350 E_long   =   -4526.467196 Press    =   -8665.918411
------------ Step         508600 ----- CPU =     139.4531 (sec) -------------
TotEng   =  -23493.872779 KinEng   =     117.664076 Temp     =     326.230242 
PotEng   =  -23611.536855 E_bond   =     371.064782 E_angle  =    1799.136679 
E_dihed  =     156.723421 E_impro  =     110.083281 E_vdwl   =    1776.437688 
E_coul   =  -23320.303542 E_long   =   -4504.679164 Press    =   -8440.303912
------------ Step         508700 ----- CPU =     139.4809 (sec) -------------
TotEng   =  -23485.567910 KinEng   =     100.840063 Temp     =     279.584721 
PotEng   =  -23586.407972 E_bond   =     399.970667 E_angle  =    1868.429552 
E_dihed  =     168.911698 E_impro  =     118.653085 E_vdwl   =    1862.220948 
E_coul   =  -23488.454587 E_long   =   -4516.139335 Press    =   -6328.309103
------------ Step         508800 ----- CPU =     139.5094 (sec) -------------
TotEng   =  -23488.701296 KinEng   =     109.662608 Temp     =     304.045723 
PotEng   =  -23598.363904 E_bond   =     356.293043 E_angle  =    1839.249795 
E_dihed  =     167.325741 E_impro  =     121.763407 E_vdwl   =    1774.516451 
E_coul   =  -23330.804436 E_long   =   -4526.707905 Press    =   -7326.654519
------------ Step         508900 ----- CPU =     139.5378 (sec) -------------
TotEng   =  -23472.893179 KinEng   =     126.749900 Temp     =     351.421197 
PotEng   =  -23599.643079 E_bond   =     372.636158 E_angle  =    1828.737724 
E_dihed  =     164.943744 E_impro  =     145.221770 E_vdwl   =    1800.443617 
E_coul   =  -23389.358263 E_long   =   -4522.267829 Press    =   -7375.544648
------------ Step         509000 ----- CPU =     139.5664 (sec) -------------
TotEng   =  -23506.319269 KinEng   =     106.275672 Temp     =     294.655253 
PotEng   =  -23612.594941 E_bond   =     404.669591 E_angle  =    1856.760196 
E_dihed  =     167.361367 E_impro  =     114.486075 E_vdwl   =    1765.566401 
E_coul   =  -23398.738570 E_long   =   -4522.700001 Press    =   -8467.029272
------------ Step         509100 ----- CPU =     139.5949 (sec) -------------
TotEng   =  -23495.765183 KinEng   =     107.619438 Temp     =     298.380919 
PotEng   =  -23603.384621 E_bond   =     397.068676 E_angle  =    1808.086498 
E_dihed  =     164.767353 E_impro  =     124.547255 E_vdwl   =    1784.822280 
E_coul   =  -23360.110881 E_long   =   -4522.565802 Press    =   -8845.825124
------------ Step         509200 ----- CPU =     139.6223 (sec) -------------
TotEng   =  -23501.660913 KinEng   =      93.093261 Temp     =     258.106279 
PotEng   =  -23594.754174 E_bond   =     393.662969 E_angle  =    1824.906766 
E_dihed  =     168.884962 E_impro  =     121.112277 E_vdwl   =    1840.854742 
E_coul   =  -23415.782574 E_long   =   -4528.393317 Press    =   -6032.814569
------------ Step         509300 ----- CPU =     139.6493 (sec) -------------
TotEng   =  -23517.149195 KinEng   =      98.097557 Temp     =     271.980971 
PotEng   =  -23615.246752 E_bond   =     405.857302 E_angle  =    1843.440364 
E_dihed  =     165.453928 E_impro  =     111.789587 E_vdwl   =    1819.226633 
E_coul   =  -23438.419105 E_long   =   -4522.595461 Press    =   -7547.635652
------------ Step         509400 ----- CPU =     139.6765 (sec) -------------
TotEng   =  -23493.563413 KinEng   =     116.689607 Temp     =     323.528470 
PotEng   =  -23610.253020 E_bond   =     395.635072 E_angle  =    1836.409239 
E_dihed  =     165.887443 E_impro  =     122.139808 E_vdwl   =    1775.178011 
E_coul   =  -23396.204325 E_long   =   -4509.298269 Press    =   -8143.711714
------------ Step         509500 ----- CPU =     139.7046 (sec) -------------
TotEng   =  -23469.520665 KinEng   =     108.583440 Temp     =     301.053669 
PotEng   =  -23578.104105 E_bond   =     368.235065 E_angle  =    1807.306102 
E_dihed  =     165.533070 E_impro  =     137.199004 E_vdwl   =    1718.025846 
E_coul   =  -23254.426980 E_long   =   -4519.976212 Press    =  -10283.432926
------------ Step         509600 ----- CPU =     139.7332 (sec) -------------
TotEng   =  -23492.081787 KinEng   =     109.789436 Temp     =     304.397361 
PotEng   =  -23601.871223 E_bond   =     425.408805 E_angle  =    1854.468233 
E_dihed  =     162.135601 E_impro  =     110.215854 E_vdwl   =    1711.585540 
E_coul   =  -23353.025552 E_long   =   -4512.659704 Press    =  -10125.918140
------------ Step         509700 ----- CPU =     139.7618 (sec) -------------
TotEng   =  -23488.320343 KinEng   =     110.968201 Temp     =     307.665551 
PotEng   =  -23599.288544 E_bond   =     380.824825 E_angle  =    1847.492231 
E_dihed  =     165.182447 E_impro  =     121.153394 E_vdwl   =    1795.588412 
E_coul   =  -23400.619693 E_long   =   -4508.910161 Press    =   -8351.239336
------------ Step         509800 ----- CPU =     139.7905 (sec) -------------
TotEng   =  -23506.820149 KinEng   =     115.324157 Temp     =     319.742685 
PotEng   =  -23622.144307 E_bond   =     358.547582 E_angle  =    1815.268892 
E_dihed  =     165.670736 E_impro  =     109.855261 E_vdwl   =    1742.608513 
E_coul   =  -23289.040489 E_long   =   -4525.054801 Press    =   -8447.289775
------------ Step         509900 ----- CPU =     139.8176 (sec) -------------
TotEng   =  -23498.025745 KinEng   =     120.128725 Temp     =     333.063619 
PotEng   =  -23618.154470 E_bond   =     400.963128 E_angle  =    1833.007074 
E_dihed  =     163.661253 E_impro  =     126.551934 E_vdwl   =    1789.436817 
E_coul   =  -23421.977748 E_long   =   -4509.796929 Press    =   -9445.343261
------------ Step         510000 ----- CPU =     139.8447 (sec) -------------
TotEng   =  -23500.939566 KinEng   =     117.176747 Temp     =     324.879094 
PotEng   =  -23618.116313 E_bond   =     383.030086 E_angle  =    1812.335395 
E_dihed  =     163.578530 E_impro  =     111.404823 E_vdwl   =    1802.099717 
E_coul   =  -23381.886269 E_long   =   -4508.678594 Press    =   -6247.367131
Loop time of 139.845 on 8 procs for 500000 steps with 122 atoms

Performance: 154.457 ns/day, 0.155 hours/ns, 3575.394 timesteps/s, 436.198 katom-step/s
99.6% CPU use with 8 MPI tasks x 1 OpenMP threads

MPI task timing breakdown:
Section |  min time  |  avg time  |  max time  |%varavg| %total
---------------------------------------------------------------
Pair    | 0.17035    | 5.4182     | 21.128     | 348.8 |  3.87
Bond    | 0.044388   | 2.007      | 7.932      | 223.0 |  1.44
Kspace  | 79.708     | 95.963     | 104.19     |  85.6 | 68.62
Neigh   | 0.0012107  | 0.0012453  | 0.0012615  |   0.1 |  0.00
Comm    | 18.638     | 27.38      | 36.35      | 116.5 | 19.58
Output  | 1.1378     | 1.1464     | 1.1956     |   1.7 |  0.82
Modify  | 0.97919    | 7.2474     | 19.163     | 267.1 |  5.18
Other   |            | 0.6822     |            |       |  0.49

Nlocal:          15.25 ave          56 max           0 min
Histogram: 6 0 0 0 0 0 0 0 0 2
Nghost:        556.375 ave         852 max         293 min
Histogram: 2 0 0 1 2 1 0 0 0 2
Neighs:        1056.62 ave        4187 max           0 min
Histogram: 6 0 0 0 0 0 0 0 1 1

Total # of neighbors = 8453
Ave neighs/atom = 69.286885
Ave special neighs/atom = 10.967213
Neighbor list builds = 6
Dangerous builds = 0
unfix                2
undump               1
Total wall time: 0:02:22
