ITEM: TIMESTEP
0
ITEM: NUMBER OF ATOMS
122
ITEM: BOX BOUNDS pp pp pp
0.0000000000000000e+00 2.0000000000000000e+01
0.0000000000000000e+00 2.0000000000000000e+01
0.0000000000000000e+00 2.0000000000000000e+01
ITEM: ATOMS id type xu yu zu vx vy vz
69 1 5.8585 9.1226 9.88671 -0 0 -0
97 5 9.57497 9.33668 8.8809 -0 -0 0
118 5 6.1848 6.81863 8.20534 -0 0 0
117 5 7.35221 7.31601 7.27728 -0 -0 0
88 4 6.65729 9.0884 8.8763 0 -0 -0
80 3 8.08567 7.24708 9.67785 0 0 0
86 3 7.06757 7.59327 8.39422 0 -0 -0
75 3 9.57181 8.34431 9.52566 -0 0 -0
108 5 7.96581 6.0871 9.74286 -0 -0 0
1 1 6.8842 5.64288 -5.9446 0 -0 -0
68 6 4.79511 6.14884 -5.97944 -0 -0 -0
67 6 5.5437 4.60496 -6.25801 0 -0 0
66 6 2.50639 2.66609 -3.74045 0 -0 -0
65 6 1.15435 2.56596 -2.88241 0 0 0
40 6 3.92574 2.98587 -2.61156 0 -0 0
39 6 1.50104 6.68015 -4.28268 -0 0 -0
38 6 3.75313 6.50702 -4.28517 -0 0 -0
37 6 5.58606 2.59851 -5.89142 0 -0 -0
36 6 6.48651 3.8566 -4.98974 -0 0 -0
35 6 7.53304 3.98769 -7.12004 -0 -0 -0
34 6 6.25074 5.02849 -7.75685 -0 0 -0
33 6 7.11618 6.56216 -6.58338 0 -0 -0
32 6 7.62917 5.14391 -5.33577 0 0 0
31 1 5.44297 5.38496 -5.51103 0 0 -0
30 3 2.43066 3.43294 -4.04008 0 -0 -0
29 3 1.3217 3.49412 -3.35932 0 -0 0
28 3 1.13283 3.19959 -0.600115 0 0 -0
27 3 0.720739 1.88726 -0.721916 0 -0 0
14 3 1.57141 0.918365 -1.20122 0 0 -0
13 3 2.69968 1.44171 -1.97931 -0 -0 -0
12 3 3.26928 2.71109 -1.79998 0 0 -0
11 3 2.3094 3.6272 -1.24502 0 0 -0
10 4 1.78872 5.91422 -1.0947 0 -0 -0
9 3 1.94882 4.87629 -1.76341 0 -0 0
8 3 1.38097 4.84133 -3.01984 0 0 -0
7 3 1.86747 5.83332 -3.89596 -0 0 -0
6 3 3.16877 5.67948 -4.16209 -0 -0 -0
5 3 3.49148 4.34081 -4.28964 0 -0 -0
4 2 4.90906 4.28994 -4.55038 0 -0 -0
3 1 5.69366 3.6922 -5.69752 0 -0 0
2 1 6.58426 4.49413 -6.83463 0 0 0
41 6 2.7677 1.14162 -2.95384 -0 0 -0
107 5 7.6314 6.89392 10.7871 -0 -0 0
64 6 0.432827 3.84496 -0.207264 -0 0 -0
98 5 9.33862 9.16762 10.1988 -0 -0 -0
121 5 4.55672 11.2433 8.62232 -0 0 -0
120 5 5.27884 11.9831 8.21812 0 -0 0
100 5 9.55428 12.3797 9.22056 -0 -0 -0
84 3 6.50733 12.5644 9.39691 -0 -0 0
114 5 6.14361 13.0955 8.53863 0 0 -0
87 3 5.08197 11.9634 9.23318 -0 0 0
101 5 9.14132 14.6208 9.86694 0 0 -0
110 5 7.50863 14.5386 9.6208 -0 -0 -0
70 2 6.97544 10.3188 8.82934 0 0 -0
119 5 4.27108 12.643 9.55263 -0 0 -0
122 6 6.02252 10.0591 9.83941 -0 0 -0
115 5 5.97875 12.178 10.1994 0 -0 -0
15 5 1.03631 -0.748531 -0.441057 0 0 0
81 3 7.27092 13.7454 10.2953 -0 -0 0
109 5 6.5644 14.3641 10.9305 0 0 0
99 5 8.72226 11.8977 10.6912 -0 -0 -0
102 5 9.27307 14.5433 11.5619 0 -0 0
77 3 8.8785 13.8695 10.6534 0 0 0
76 3 9.55123 12.4215 10.3009 0 0 0
71 3 12.4885 7.87662 9.49379 0 -0 0
93 5 10.9074 6.7285 8.62573 -0 -0 0
73 3 10.9708 7.365 9.5598 -0 -0 0
89 5 13.1172 7.78918 8.75833 0 -0 -0
92 5 14.1627 7.0118 10.0799 0 -0 -0
63 6 -0.233573 1.62389 -0.466813 0 0 -0
74 3 15.2491 8.6331 10.6649 0 0 -0
90 5 12.8283 7.67291 10.4313 -0 0 0
96 5 15.6171 8.28108 11.6607 -0 0 0
94 5 10.9231 6.43299 10.2652 0 0 0
91 5 13.3311 7.95042 11.1835 0 -0 0
72 3 13.8196 7.98361 10.3211 0 -0 0
95 5 15.9249 7.81285 10.1254 -0 0 -0
62 7 -7.73896 -7.87787 8.45468 -0 -0 -0
61 6 -6.80675 -8.6801 6.24341 0 -0 -0
60 6 -6.90565 -8.17858 8.23014 0 0 -0
59 6 -4.89597 -6.27482 6.96519 0 -0 0
58 6 -6.72327 -5.89992 7.18068 0 0 -0
57 6 -7.05395 -6.28846 4.99508 0 0 -0
56 6 -5.09527 -6.75473 4.74867 0 0 0
55 6 -5.08118 -3.97446 4.2543 -0 -0 0
54 6 -5.3136 -4.60854 6.17831 0 0 0
53 6 -3.572 -6.09378 5.8357 0 0 0
52 6 -3.28126 -5.57222 3.82458 -0 0 -0
51 6 -1.69108 -3.47022 4.1977 -0 -0 0
50 6 -3.59558 -3.47492 5.27075 -0 -0 -0
49 6 -4.1788 -4.2906 2.81486 -0 0 -0
48 6 -2.21948 -4.22761 2.48401 0 -0 -0
47 6 -2.96739 -1.56138 1.82944 0 0 0
46 6 -2.60568 -2.05456 3.49928 -0 0 0
45 6 -0.636316 -3.08845 2.77854 -0 0 -0
44 6 -1.10658 -3.21351 0.969142 0 -0 0
43 6 -1.11473 -0.743474 0.367335 -0 0 0
42 6 -0.271523 -0.550112 1.85648 -0 -0 -0
26 5 -7.95935 -7.02244 7.43263 0 0 0
25 1 -6.57914 -7.91066 7.09733 0 0 0
24 1 -5.9333 -6.53144 6.68714 -0 0 -0
23 1 -5.90213 -6.15289 5.19402 -0 -0 -0
22 1 -5.04771 -4.82985 5.08022 0 0 -0
21 1 -3.55711 -5.30044 4.88964 0 -0 -0
20 1 -2.83477 -3.90549 4.52483 -0 -0 0
19 1 -3.12146 -3.77822 2.98457 0 -0 0
18 1 -2.52738 -2.37981 2.46198 0 0 -0
17 1 -1.0446 -2.52438 1.82568 -0 0 0
16 1 -0.332771 -1.17804 0.985444 0 0 -0
85 4 12.6187 10.0938 9.09394 0 0 0
113 5 14.8409 10.0799 8.42152 -0 -0 0
83 4 14.1061 10.1491 9.28653 0 -0 -0
82 3 11.5941 10.433 9.91479 -0 0 0
116 5 12.6339 10.3178 9.93022 -0 0 -0
78 3 10.9711 11.7835 10.75 -0 0 0
106 5 15.9161 10.9682 10.3038 0 0 -0
112 5 12.432 10.3221 10.0256 -0 0 -0
111 5 11.9111 10.2945 10.8058 -0 -0 0
105 5 14.8181 11.1623 11.469 -0 0 -0
104 5 11.0673 11.807 11.972 0 0 0
103 5 11.4046 12.7642 10.6075 -0 -0 0
79 3 15.0709 10.3334 10.5801 -0 0 -0
ITEM: TIMESTEP
1000
ITEM: NUMBER OF ATOMS
122
ITEM: BOX BOUNDS pp pp pp
0.0000000000000000e+00 2.0000000000000000e+01
0.0000000000000000e+00 2.0000000000000000e+01
0.0000000000000000e+00 2.0000000000000000e+01
ITEM: ATOMS id type xu yu zu vx vy vz
69 1 6.77831 9.48896 8.96692 0.00178122 0.000377515 -0.0018345
14 3 1.06399 0.742604 2.18239 0.0141879 0.0023953 0.00943332
118 5 6.93656 7.07537 7.69294 0.00163461 0.000345901 -0.00288595
117 5 7.79041 7.54002 6.37453 0.00224611 0.00084822 -0.00216929
88 4 7.28926 9.4909 7.82668 0.00133503 0.000695849 -0.00200779
80 3 8.98066 7.71919 8.44609 0.00137672 0.00106972 -0.00119393
86 3 7.71032 7.95588 7.46843 0.00165411 0.000671147 -0.00206086
11 3 1.14612 3.0421 0.773455 -0.00696727 -0.00544652 0.00363404
108 5 9.00705 6.64756 8.11975 0.00162111 0.000849321 -9.59153e-05
64 6 0.476519 3.93313 2.55547 -0.0121737 -0.00392542 -0.00111864
63 6 0.39422 1.82104 3.85345 -0.00660734 -0.000760865 0.00544643
28 3 0.779525 3.05404 2.13138 -0.00527531 -0.00388984 0.00308515
27 3 0.71916 1.85615 2.89254 0.00240585 -0.000584227 0.00838485
98 5 9.7929 9.65806 8.76834 0.00122905 0.000878316 -0.00209443
107 5 8.81967 7.44982 9.58622 0.00186687 0.00181142 -0.000857054
13 3 1.4084 1.00997 1.08747 0.00938449 0.000150609 0.0113663
12 3 1.63966 1.9278 0.323459 -0.00581269 -0.00249036 0.00138842
41 6 1.2172 0.314469 0.592311 -0.00636205 -0.00599061 -0.0158065
1 1 3.89409 0.162461 -2.15484 -0.00752231 -0.0119843 0.00332607
10 4 1.18247 4.46432 -1.02113 -0.0164028 -0.00810263 0.00618526
34 6 2.89893 0.261518 -0.146732 -0.00538612 -0.00445814 0.00450534
31 1 2.39863 0.0292417 -2.44729 -0.00977913 -0.00810075 0.00760114
9 3 0.533486 3.6032 -0.321176 -0.0124528 -0.0145356 0.00522476
40 6 1.72679 1.50954 -0.509895 -0.00634594 -0.00580513 0.0137065
32 6 4.55156 0.966845 -2.44917 -0.0098527 -0.012438 0.00446329
38 6 0.291576 1.29813 -3.2213 -0.0187183 -0.0272417 0.0160431
5 3 -0.0227864 0.399591 -1.30115 -0.00454313 -0.0150366 0.00927817
36 6 2.67191 0.048871 -0.229193 0.0114698 0.0251358 0.013357
121 5 5.43625 11.8249 9.40587 0.00200601 2.89171e-05 6.94222e-05
120 5 5.28968 11.5813 7.69202 0.000701897 -7.2056e-05 -6.42914e-06
100 5 9.81809 12.6256 8.95813 -8.32095e-06 0.000359525 -0.000876687
84 3 7.00406 12.8714 8.64253 0.000743999 0.000540446 -0.00116053
114 5 6.68266 13.4045 7.76392 0.00050481 0.00024262 -0.00125113
87 3 5.61952 12.271 8.4587 0.000947189 3.2163e-05 -0.000240825
101 5 9.77101 14.3852 9.06699 0.00130017 -0.00090677 -0.00177581
110 5 7.89951 14.8372 8.87968 0.000807481 0.000961073 -0.00129397
70 2 7.56272 10.7577 7.80402 0.0011216 0.000777466 -0.00162632
119 5 4.87991 13.083 8.32154 0.000597511 -0.000258194 2.86905e-05
122 6 7.03743 10.4139 8.66438 0.00185749 0.000444634 -0.00146667
15 5 1.18471 -0.85873 1.71936 0.00832925 0.00169455 0.0133586
115 5 6.37946 12.3535 9.35001 0.000921248 0.000174901 -0.00113413
81 3 7.69504 14.0486 9.57205 0.000896327 0.000741049 -0.00146026
77 3 9.28757 14.0611 9.99414 0.000937149 0.000335844 -0.00156523
76 3 9.69721 12.5616 10.0338 0.000225836 0.000378945 -0.000859594
37 6 2.32555 -1.86852 -0.280379 -0.00449391 -0.00323598 0.00875109
109 5 6.96337 14.6175 10.2494 0.000919416 0.000728409 -0.00144145
99 5 8.84768 12.0081 10.4796 0.000446028 0.000303108 -0.000507242
102 5 9.85237 14.8809 10.6305 0.00149128 0.000284203 -0.00207276
67 6 2.9784 -0.685791 -1.8107 -0.00356916 -0.0188132 -0.00736654
3 1 2.37398 -0.861413 -0.771645 -0.00645771 -0.00756377 0.0067901
35 6 4.46104 -0.739385 -0.137186 -0.00398892 -0.00497717 0.00511275
68 6 2.21997 -0.396176 -3.43905 -0.013492 -0.00726543 0.00850304
4 2 1.24588 -0.279198 -1.4696 -0.0066033 -0.00844801 0.011865
2 1 3.66053 -0.192712 -0.696041 -0.0039068 -0.00924256 0.00251238
33 6 4.3405 -0.698945 -2.62215 -0.00730553 -0.013387 0.00280421
71 3 12.4003 8.58882 9.88722 0.000192765 0.00208074 -0.000862868
93 5 12.1468 7.37342 7.88934 0.00200993 0.00172833 -0.000683394
73 3 11.6324 7.85937 8.79373 0.00134038 0.00144055 -0.00105169
89 5 13.1736 8.23548 9.64303 -0.000141237 0.0017783 -0.000449219
113 5 14.2209 9.75931 7.32569 0.000241132 0.000974102 -0.00129821
94 5 11.7404 6.77361 9.27832 0.00202113 0.0014184 -0.00135567
97 5 10.2802 9.80194 7.67846 0.00113749 0.000708112 -0.00187906
75 3 10.2868 8.81576 8.33443 0.00128721 0.000854871 -0.00172997
65 6 -0.753375 1.07853 1.06178 0.0343067 0.0389594 0.0173431
66 6 -0.618462 0.31925 0.680223 0.0255644 -0.011023 -0.0246334
29 3 -1.06358 1.53351 0.203378 -0.0115183 -0.0119028 0.0198237
92 5 14.1164 8.02018 10.792 -0.00116428 0.00262 0.00353783
95 5 16.0178 8.54101 10.1044 -3.97655e-05 7.28898e-05 -0.00239983
74 3 15.3001 9.46579 10.211 0.000501805 0.000201209 -0.00153001
90 5 12.322 8.74515 10.8507 -0.000169363 0.00218879 -0.000911614
96 5 15.6824 9.73674 11.2216 0.00221406 -0.000280402 -0.00206228
39 6 -1.91345 2.21709 -2.2183 -0.00352498 0.00919641 -0.00966964
91 5 13.203 9.23663 11.2495 0.000637311 0.00335617 -0.000672011
72 3 13.7796 8.95192 10.4421 4.16601e-05 0.00188618 -0.00032572
6 3 -0.139113 1.37854 -2.29543 -0.0138631 -0.0190696 0.0161081
7 3 -0.950297 2.43708 -1.95426 -0.0068909 -0.0133029 0.0141903
30 3 -0.85544 0.418855 -0.23528 0.00424247 -0.00819462 0.00545837
8 3 -0.561312 2.66556 -0.61063 -0.0111112 -0.0233581 0.0172185
62 7 -6.6308 -6.84565 8.4803 0.00217828 0.00119674 -0.00224835
61 6 -7.4887 -6.95376 5.49158 0.00163532 0.00274815 -0.000979286
60 6 -6.89739 -7.9563 7.12053 0.00285361 0.00250451 -0.00165533
59 6 -4.68348 -6.96258 5.04437 -0.00065534 -0.000244268 -0.0039565
58 6 -4.64386 -7.10388 6.88792 0.00294025 0.00359112 -0.00433085
57 6 -4.95241 -5.02659 7.25488 0.0059037 0.00362178 -0.00477448
56 6 -5.03641 -4.37412 5.31098 0.00174506 0.00521222 -0.00300691
55 6 -2.83061 -3.89701 5.30741 0.00058338 0.00244811 -0.00900793
54 6 -2.9811 -5.99528 5.73778 0.00141874 0.00123718 -0.0104607
53 6 -3.68461 -6.30061 3.77003 -0.0149658 0.00430031 -0.0105343
52 6 -4.23054 -4.55363 3.13908 -0.008871 0.0106727 -0.000317138
51 6 -2.0154 -3.67346 2.22199 0.00575171 -0.00658337 -0.015269
50 6 -1.70694 -4.56439 4.01162 -0.0102157 -0.00116015 -0.00860926
49 6 -4.06755 -3.11618 4.29832 0.000272487 0.0106529 -0.000622669
48 6 -3.84888 -2.53348 2.38759 -0.00738829 0.00611474 -0.0048574
47 6 -2.88728 -0.7997 4.24135 0.0165162 0.0153243 -0.00863916
46 6 -1.9254 -2.36725 4.01966 0.0127634 0.0103852 -0.0384102
45 6 -1.93508 -0.420098 1.42492 -0.0124296 -0.0566514 0.0220656
44 6 -1.28756 0.0705693 3.18926 0.0200839 0.0351839 -0.00907273
82 3 11.7652 10.9003 9.74095 0.000590172 0.00181719 -0.00173305
116 5 12.7793 10.9512 9.00283 0.000681465 0.00191306 -0.00176489
26 5 -7.25029 -6.08672 7.62024 0.00281999 0.00248334 -0.00146623
25 1 -6.70409 -7.12492 6.33083 0.00263896 0.00289542 -0.0019098
24 1 -5.18096 -6.65922 6.00359 0.00222653 0.00392475 -0.00410589
23 1 -4.75975 -5.14558 6.08739 0.00428 0.00427103 -0.00548983
22 1 -3.37775 -4.99251 5.33878 0.00197586 0.00281257 -0.00868568
21 1 -3.524 -5.13992 3.76301 -0.0100287 0.00365936 -0.00568265
20 1 -2.41502 -4.13789 3.24882 -0.0116473 0.00235719 -0.0072207
19 1 -3.38747 -2.87068 3.36843 -0.00274676 0.012345 -0.00432699
18 1 -2.50907 -1.59099 3.51127 0.00323182 0.0166695 -0.014882
17 1 -1.69845 -0.689143 2.46835 0.00893954 0.0213637 0.0102059
112 5 12.5171 11.0571 9.21125 0.000854789 0.00199878 -0.00149015
85 4 12.4518 10.3747 8.5853 0.000631218 0.00167905 -0.00148304
83 4 13.9009 10.2747 8.28673 0.000531329 0.00102049 -0.00128096
106 5 16.0963 10.8582 8.50374 0.000529484 0.000444048 -0.00109214
16 1 -0.446938 -1.4642 2.04112 -0.00885161 -0.000209191 -0.0254111
79 3 15.2376 10.7405 9.16951 0.000604006 0.000299623 -0.00113475
42 6 -0.756344 -1.45785 0.914703 -0.0108091 0.00910597 -0.0512188
105 5 15.4045 11.843 9.61618 0.000857853 -0.000115458 -0.000515028
43 6 -0.319953 -2.28731 2.85612 -0.0201024 0.0218782 -0.0137203
111 5 12.4545 11.5425 9.96964 0.000394824 0.00228411 -0.00228296
78 3 10.9401 11.8976 10.671 -0.000134872 0.000254234 -0.00088358
103 5 11.6302 12.5975 11.0296 6.53981e-05 -0.000829724 0.000742959
104 5 10.6327 11.7171 11.8283 -0.00168905 -0.000563953 -0.00135257
ITEM: TIMESTEP
2000
ITEM: NUMBER OF ATOMS
122
ITEM: BOX BOUNDS pp pp pp
0.0000000000000000e+00 2.0000000000000000e+01
0.0000000000000000e+00 2.0000000000000000e+01
0.0000000000000000e+00 2.0000000000000000e+01
ITEM: ATOMS id type xu yu zu vx vy vz
69 1 7.29257 9.82561 8.35929 0.00019018 -0.000512506 -0.00404564
107 5 9.49941 8.14236 9.29499 -0.00125999 0.00212244 -0.001138
118 5 7.50161 7.37283 7.52503 0.000161269 -0.00188757 -0.000335537
117 5 8.24381 7.5986 6.12134 0.00361707 -0.000846386 -0.00068416
88 4 7.90864 9.74089 7.30882 0.000217416 -0.00110029 -0.00334185
80 3 9.621 8.22961 8.11884 -0.000156148 0.00129442 -0.000644384
86 3 8.29015 8.17642 7.14183 0.000250815 -0.00128781 -0.000955719
12 3 0.542785 0.878707 1.46151 -0.0011596 -0.00112087 0.00108296
108 5 9.86641 7.19312 8.4469 0.000903868 0.00280105 0.00483524
40 6 0.20409 -9.72978e-05 1.15059 -0.00207723 -0.00169036 0.000646867
63 6 0.599895 0.322687 5.10302 0.00209225 -0.00289825 0.000705503
13 3 1.0926 -0.0189107 2.08014 -0.00113986 -0.00168344 0.000429153
27 3 0.6141 0.489792 4.10256 0.00155094 -0.00265352 0.000831458
28 3 0.0990269 1.69641 3.56389 0.00171605 -0.00192399 0.00183323
121 5 6.44809 12.212 9.36223 0.00190971 -0.00158865 -0.00214327
120 5 5.89401 12.164 7.69065 0.00175916 0.000165847 -0.00202962
41 6 0.37219 -0.30062 1.51375 -0.00104172 -0.00116674 0.00125222
84 3 7.76731 13.1008 8.00245 0.00458674 -0.0015438 0.00130944
114 5 7.24151 13.7246 7.29574 0.00607165 -0.00365049 -0.00266242
87 3 6.41979 12.7006 8.43113 0.00266525 3.84469e-05 -0.0017683
14 3 0.958218 -0.534733 3.22963 0.000191499 -0.00247649 8.49222e-05
110 5 9.73638 13.2208 7.88886 0.000769796 0.00212329 -0.000436085
70 2 8.08695 11.0191 7.16963 0.000252067 -0.00102852 -0.00192214
119 5 5.76935 13.5727 8.61797 0.0026475 0.00110635 -0.00289385
122 6 7.59805 10.7383 8.01048 0.00129072 -0.000686062 -0.00374174
15 5 1.0225 -2.2167 3.36275 -0.000190181 -0.00262092 -0.000841056
115 5 7.34032 12.7242 8.84184 0.00226057 -0.0021395 0.000108407
81 3 9.0199 13.8119 8.42508 0.00226264 0.00103917 0.00199448
77 3 9.88583 13.8376 9.66837 0.000495185 0.00154295 0.00275457
37 6 0.448715 -3.42153 0.503217 -0.00435835 -0.000868965 -0.000993997
34 6 1.45241 -0.777211 0.201938 -0.00204696 -0.000370848 -0.000764001
36 6 0.751292 -1.85498 1.12389 -0.00230492 -0.00127067 -0.000623537
3 1 0.496199 -2.27626 0.349383 -0.00360574 -0.000289766 -0.000311121
109 5 8.83902 14.881 8.02918 0.00178606 0.000253289 0.00300071
31 1 -0.167513 -1.42284 -1.38217 -0.00444821 0.000760577 0.000937553
33 6 1.25609 -2.78124 -2.07352 -0.00585859 0.000107685 -0.000812362
2 1 1.66251 -1.66246 -0.31878 -0.00369061 -0.000662058 -0.00100628
100 5 9.38367 11.3409 10.3163 0.00137657 0.000637289 0.000836755
99 5 8.81064 12.5346 11.1373 -3.55063e-05 -0.00125171 0.00203906
1 1 1.24566 -1.74015 -1.81396 -0.00519555 9.52381e-05 -0.000549006
67 6 0.580535 -1.98375 -0.759295 -0.00438414 4.09923e-05 0.000186534
32 6 1.75055 -1.22301 -2.64592 -0.00560632 0.000295361 -0.000590519
76 3 9.68309 12.4129 10.4787 -0.000904062 0.000705425 0.000225406
35 6 2.66227 -2.11718 -0.098919 -0.00415391 -0.00219152 -0.00189548
71 3 12.6502 9.20527 9.09429 -0.0014156 0.00447476 -0.000896083
93 5 12.6951 8.2985 6.80299 -0.00239007 0.00302067 -0.00419852
73 3 12.2258 8.46687 7.80723 -0.000566126 -0.000395696 -0.000746462
9 3 -1.40303 1.95119 1.49757 -0.000442344 2.79378e-05 0.00371501
7 3 -3.45759 0.638564 1.01483 -0.00126601 0.00100192 0.00465304
94 5 12.67 7.38169 7.82848 -0.00165917 0.00143343 -0.00317806
97 5 11.0992 9.90601 6.59355 -0.000152899 -0.000365407 -0.00221252
75 3 10.8405 9.33246 7.60026 -0.000606798 0.00163685 -0.000692295
39 6 -4.42292 0.525929 1.27597 -0.0013096 0.000874254 0.00542559
11 3 -0.191134 1.74009 2.18311 6.58643e-05 -0.000967212 0.00229585
29 3 -2.14954 0.265044 2.7694 -0.000346272 -0.000559389 0.00331996
64 6 -0.211047 2.44768 4.18676 0.00308152 -0.00219036 0.00297894
95 5 15.6205 9.15212 9.72223 -0.00090725 0.000309596 0.00173358
8 3 -2.53065 1.23078 1.89911 -0.000342059 0.000122551 0.00442168
10 4 -1.38135 2.26594 0.291521 -0.0012399 0.00149736 0.00395116
72 3 13.7668 9.58057 9.89881 -0.000598837 0.00323278 -0.00185582
90 5 11.9894 9.19313 9.90215 0.00284836 -0.00315918 0.00101423
92 5 14.1419 8.63205 10.2853 -0.00654186 0.00314206 -0.00112233
91 5 13.0058 9.70944 10.6157 -0.000634412 1.54793e-05 -0.00191618
89 5 12.56 9.30842 10.0479 -0.00151777 0.00239353 0.00389465
62 7 -6.63123 -6.25774 7.88097 0.000186279 0.000834907 0.000212925
61 6 -8.4785 -6.4425 5.85445 0.00131494 -0.00433208 -0.00122818
60 6 -6.92109 -7.10107 6.92583 0.00121896 -0.00165069 -0.000171991
59 6 -5.94518 -5.85953 4.25498 -2.61506e-06 -0.00212774 -0.000555023
58 6 -6.17968 -7.60872 4.89263 0.000793932 -0.00204917 -0.000781837
57 6 -4.77356 -6.60847 7.15044 -0.000411122 -0.000500457 0.000327911
56 6 -4.53466 -5.01891 6.03296 -0.000168091 -0.00149966 -0.00155652
55 6 -2.86955 -5.44316 5.09984 0.000401789 -0.00224916 -0.00113657
54 6 -4.28733 -6.66855 4.52206 0.00123098 -0.00184459 -0.00209669
53 6 -5.89047 -4.27988 4.98654 0.00130501 -0.00158894 -0.00225352
52 6 -4.34029 -3.07363 5.31263 0.00289262 -0.00218311 -0.00406483
51 6 -3.36762 -3.07881 3.22117 0.00219945 -0.00240968 -0.00143207
50 6 -4.3377 -4.74196 4.01334 0.000883564 -0.00152668 -0.0011621
49 6 -3.01413 -4.03505 6.19949 0.000585254 -0.00272991 -0.000467106
48 6 -2.60828 -2.13007 5.52051 0.00237792 -0.00274957 0.00101964
47 6 -0.521913 -3.43918 5.47657 0.00140026 -0.00334145 -0.000201584
46 6 -1.87061 -4.25758 4.16262 0.0002587 -0.00113543 -0.00045079
45 6 -1.97128 -1.93483 3.17883 0.000923705 -0.00136556 0.00211941
44 6 -0.63126 -1.72487 4.60243 0.00197721 -0.00179307 0.00209643
82 3 11.3203 11.489 9.198 -0.00285792 -0.00100662 -0.00219529
116 5 12.3574 11.8182 8.71516 -0.000975071 0.00173825 0.00135806
26 5 -6.8252 -5.10088 7.20373 -0.000333959 -0.000855185 -0.00225815
25 1 -7.28733 -6.39054 6.13 0.00101321 -0.00325398 -0.000140578
24 1 -6.08162 -6.52354 5.17202 0.000609497 -0.00207834 -0.000736612
23 1 -4.88675 -6.07236 6.09541 0.000258427 -0.00180131 -0.000726737
22 1 -3.98221 -5.6544 4.99549 0.000861897 -0.00260855 -0.00106334
21 1 -4.71018 -4.12969 5.05938 0.00163194 -0.00234446 -0.00193272
20 1 -3.61378 -3.82923 4.08787 0.00237102 -0.00263976 -0.000958181
19 1 -2.84258 -3.25469 5.36319 0.00112282 -0.00228887 -7.59405e-06
18 1 -1.50188 -3.47169 4.80787 0.00111204 -0.00206129 4.1161e-05
17 1 -1.25664 -2.35333 3.90527 0.000521216 -0.00108868 0.00114944
112 5 12.1477 11.7857 8.76962 0.000744286 0.00124062 -0.00149924
85 4 12.3402 11.1766 8.29441 -0.00218276 0.00314227 -0.00437215
83 4 13.8151 11.1009 8.13399 -0.00180592 0.000504523 0.000519149
106 5 16.1038 11.6083 8.48153 -0.00155921 -0.000628289 0.0016037
16 1 -0.485575 -2.93767 2.84197 -0.00112031 -0.00115903 5.32531e-05
79 3 15.1273 11.4966 9.02259 -0.00237512 9.42632e-05 0.000738071
42 6 -0.842157 -2.32884 2.0169 -0.00144549 -0.000766715 0.000931726
105 5 15.2022 12.5615 9.49569 -0.00193133 0.000193402 0.000387547
111 5 12.1901 12.0628 9.333 -0.00259143 -0.000900664 -0.00105326
5 3 -1.76738 -0.784971 0.585176 -0.00235185 0.000804294 0.00219237
43 6 -0.474342 -4.12357 2.83865 -0.00123338 -0.00138926 -0.00103438
113 5 14.2792 10.7331 7.17493 0.00284057 0.00114568 0.00132131
66 6 -1.05845 -0.615319 2.45212 -0.000937152 -0.000513315 0.00178447
30 3 -1.76054 -0.416025 1.83865 -0.00141159 -0.000107068 0.00267167
102 5 10.8627 14.3943 9.89166 0.0021281 -0.00155317 0.000903033
98 5 10.4887 10.2198 6.93841 -0.000937132 -0.000386245 -0.00378578
74 3 15.1731 10.1776 9.95489 -0.00163884 0.000817685 -4.99273e-05
101 5 10.3297 14.2824 8.74801 0.00238104 0.0026065 0.00621698
65 6 -1.22631 -0.231193 2.93956 0.000109658 -0.00121453 0.00272076
78 3 10.8807 11.6331 10.838 -0.000606534 0.00325076 0.000314262
103 5 11.5397 12.109 11.4872 0.000635841 -0.00074743 -9.18908e-05
38 6 -3.44097 -0.611476 -0.756828 -0.00306178 0.00273556 0.00323961
6 3 -2.94861 -0.271815 0.0764606 -0.0023556 0.00197392 0.00327865
96 5 15.5541 10.3052 11.0007 -0.00332801 -0.000473069 5.79937e-05
4 2 -0.667199 -1.4852 0.012684 -0.00320482 0.00053476 0.00119176
68 6 -0.826483 -2.06522 -1.97029 -0.00538702 0.00137395 0.00142391
104 5 10.0634 11.199 11.7104 0.00291578 0.00215757 8.99167e-07
ITEM: TIMESTEP
3000
ITEM: NUMBER OF ATOMS
122
ITEM: BOX BOUNDS pp pp pp
0.0000000000000000e+00 2.0000000000000000e+01
0.0000000000000000e+00 2.0000000000000000e+01
0.0000000000000000e+00 2.0000000000000000e+01
ITEM: ATOMS id type xu yu zu vx vy vz
108 5 9.62713 7.63368 8.36988 -0.00253605 0.00107782 -0.00119851
107 5 9.08569 8.81006 8.69605 -0.000623875 0.000145693 0.00266899
118 5 7.10049 7.30668 7.10881 -0.00224067 0.000567502 -0.00128296
117 5 7.95057 7.24134 5.72541 0.000152169 0.00137854 0.00140876
88 4 8.07279 9.52299 6.62631 -0.00213774 -0.000853903 0.00318691
80 3 9.40084 8.42862 7.59179 -0.00214854 0.00120061 0.000688131
86 3 8.04782 7.94075 6.69024 -0.000848839 -0.000782285 0.00102582
12 3 0.178644 0.815252 2.17684 -0.00109169 0.00147062 0.00151427
28 3 0.555665 1.15005 4.43644 0.000382625 0.00108154 0.00132566
64 6 0.53639 1.74419 5.26998 0.000766103 0.000730547 0.00159124
121 5 7.44279 11.5275 8.35581 0.00200758 -0.00106741 -0.00129924
120 5 8.48785 11.7532 8.2654 -0.00360461 0.00169512 -0.000177645
27 3 1.11601 -0.146094 4.50498 0.000932422 0.0012801 0.000423748
84 3 9.02074 12.9343 7.90511 -0.00115585 0.000443482 -0.000570301
114 5 8.90643 13.1885 6.87446 -0.00189561 0.00450037 -0.00212058
87 3 7.75149 12.4934 8.26839 -0.00255546 0.00274708 0.00233366
14 3 1.0686 -0.934744 3.36765 0.000380627 0.00149289 0.000273598
13 3 0.834841 -0.199848 2.35895 -0.000482039 0.00175754 0.000655445
70 2 8.70204 10.5283 6.22951 -0.00483226 0.000998266 -0.00261261
119 5 7.0702 12.7998 7.46271 -0.00328602 -0.00258623 0.00122946
122 6 8.2474 10.9362 6.13302 -0.00223893 -0.00168298 -0.00114418
15 5 1.02372 -2.59378 3.15562 0.000613722 0.00138201 0.000598253
115 5 8.68113 11.9738 8.19413 0.000301894 -0.00220235 -0.00175406
81 3 9.28407 14.2308 8.73262 -7.41012e-05 0.001403 -0.00236011
69 1 7.49907 10.3075 5.78945 -0.00202822 -0.00431996 -0.00162271
63 6 1.41195 -0.540112 5.39187 0.00174038 0.00117046 0.000104322
34 6 0.489018 -0.597782 0.367746 -0.00133589 0.00128813 0.000937101
36 6 0.0434552 -1.81671 1.26155 -0.000692137 0.00140862 0.00134247
109 5 8.71769 15.2033 8.51549 0.00121826 0.00220848 -0.0043458
35 6 1.31343 -1.84502 -0.666377 -0.00182807 0.00136322 0.000633337
76 3 9.82627 13.0323 10.8202 0.00205935 -0.00331977 -0.00459781
2 1 0.365517 -1.32878 -0.36783 -0.00168503 0.00127163 0.00118479
100 5 9.85733 13.2989 11.8789 0.000310791 -0.000694922 -0.00540246
99 5 8.82087 12.5151 10.9043 0.00164994 -0.00327176 0.000168079
77 3 9.92357 14.4336 10.0869 0.000167418 -0.00142309 -0.00320513
71 3 12.311 9.31854 8.58559 0.00125852 -0.00016631 0.00307741
93 5 12.9247 8.45779 6.42505 -0.00286774 0.00133147 -0.00268329
73 3 12.134 8.43701 7.22953 -0.0023124 0.00354061 0.000139535
9 3 -1.55186 1.85099 3.19775 -0.000945018 0.000445539 0.00299988
7 3 -3.74509 0.682396 3.24489 -0.000611032 -0.00081208 0.00386223
94 5 12.3734 7.31085 7.20111 -0.00282963 0.00118542 -0.000966845
97 5 10.6859 9.2313 5.48509 0.00182876 0.00665381 0.00238151
75 3 10.7976 9.12912 6.63988 -0.00206226 0.00183119 0.000681521
39 6 -4.60307 0.650758 3.78267 -0.000279514 -0.00131848 0.00437977
11 3 -0.187252 1.49881 3.28753 -0.000619432 0.00115004 0.00195277
89 5 12.1095 9.34621 9.63708 -0.00123094 4.64362e-05 -0.000839433
90 5 11.7082 9.25273 9.41541 -0.00291491 -0.00118812 0.000432418
6 3 -3.6817 -0.0224935 2.02525 -0.00124589 -0.000585459 0.00369292
8 3 -2.50725 1.04094 3.82563 -0.000492238 9.36281e-05 0.00317035
10 4 -1.96505 2.49614 2.21546 -0.00185441 0.000549811 0.00355399
72 3 13.2375 9.45394 9.65572 0.000550645 -0.00181235 0.00208996
98 5 11.0948 10.0012 5.86634 -0.000723384 0.00102899 -0.000719509
92 5 13.4525 8.49172 9.99017 0.00232281 -0.00227273 -0.000472398
91 5 12.2632 9.54524 10.0917 0.000595583 -0.000883064 0.00112135
95 5 15.0899 9.18547 9.99775 0.000231181 -0.00264052 0.000503372
62 7 -7.05048 -6.55963 7.3214 0.000285643 -0.00105542 -0.000490732
61 6 -7.78447 -7.94811 4.97034 0.000754344 0.00227411 -0.00128688
60 6 -7.0168 -7.31595 6.68681 -0.000399399 -0.00175129 -0.000629985
59 6 -5.29336 -6.6515 4.18475 0.00336404 -0.0013327 0.00336819
58 6 -5.45544 -8.35557 5.04832 0.00461386 6.67787e-05 0.00539955
57 6 -4.95063 -6.68407 7.45862 0.00197016 0.000933433 0.00335355
56 6 -4.48994 -5.38691 6.13394 0.00282347 -0.000778574 0.00192787
55 6 -2.56719 -5.8862 5.62248 0.00264291 0.00240522 0.00282813
54 6 -3.73929 -7.25288 4.99365 0.00603997 0.00122274 -0.00112875
53 6 -5.5596 -4.99617 4.68428 0.00385669 -0.00063497 0.000684405
52 6 -4.09852 -3.61367 5.12765 0.00253614 -0.000141486 0.00124264
51 6 -2.92088 -3.71439 3.39459 0.00215454 0.00116372 0.00311074
50 6 -3.83709 -5.41881 4.17267 0.00110393 0.00198137 0.00281051
49 6 -3.01103 -4.37148 6.47426 0.000948643 0.00170044 0.00303906
48 6 -2.46654 -2.59583 5.71405 -0.000134809 0.00275076 0.00328214
47 6 -0.265661 -4.07613 5.8722 0.00192037 0.00459894 0.0040761
46 6 -1.62479 -4.76334 4.51882 0.00216032 0.00378203 0.00431026
45 6 -1.82541 -2.35114 3.79904 0.00165839 0.00138914 0.00263782
44 6 -0.151568 -2.40264 4.93374 0.00298792 0.00232554 0.000814557
82 3 11.0129 11.7024 9.26435 0.000294986 -0.00116121 -0.000928409
116 5 11.4605 11.6575 7.96916 -0.000612387 -0.00297832 -0.00212697
26 5 -7.30298 -5.72192 6.24136 0.00393881 0.000792469 -0.000359077
25 1 -7.00054 -7.24038 5.54855 0.00148706 0.000848787 -0.000566618
24 1 -5.53709 -7.22413 5.14699 0.0024585 -0.000404594 0.00388612
23 1 -4.75295 -6.44805 6.29393 0.00353655 -0.00108996 0.00298733
22 1 -3.62887 -6.16965 5.35969 0.00319028 0.000622067 0.00257391
21 1 -4.43995 -4.72353 5.04193 0.00312609 -0.000225066 0.00183494
20 1 -3.2115 -4.434 4.27263 0.00357285 0.000633081 0.00305219
19 1 -2.6462 -3.71875 5.6027 0.00115553 0.00246585 0.00343521
18 1 -1.24845 -4.01568 5.19877 0.00201932 0.00431926 0.00393847
17 1 -1.00296 -2.86967 4.35205 0.00266323 0.00217695 0.00162043
112 5 11.3702 11.7367 8.29117 -0.000887014 -0.00322208 0.000197653
85 4 12.1016 11.5527 8.52687 0.00148955 -0.000425686 -0.00329569
83 4 13.6021 11.4102 8.44507 0.00230838 -0.00212793 -0.00129166
106 5 15.9145 11.6879 9.07297 0.00199724 -0.00102769 0.00193641
16 1 -0.584665 -3.2424 3.04754 0.000883347 0.00129004 0.00134692
79 3 14.8305 11.6196 9.47484 0.00137284 -0.00239152 0.00116628
42 6 -1.25552 -2.47854 2.55903 0.000137758 0.00117879 0.00206596
105 5 14.979 12.6588 10.0251 -0.00229038 -0.000205697 0.000284151
111 5 11.8141 12.2402 9.21123 5.74403e-05 -0.00259192 -0.00321512
5 3 -2.4201 -0.592991 1.88463 -0.000872601 0.000593035 0.00239949
43 6 -0.529865 -4.4284 2.90788 0.000669439 0.00118953 0.00228121
113 5 14.22 10.9664 7.59896 0.00165935 0.000341149 0.00298112
66 6 -1.0863 -0.848971 3.30994 0.00020493 0.00159087 0.00156177
30 3 -1.92639 -0.483061 3.07385 -0.000204414 0.00103484 0.00202391
65 6 -1.0422 -0.619986 3.88382 0.000604383 0.00144878 0.00168061
41 6 -0.0462707 -0.355647 2.02016 -0.000643776 0.00163253 0.000954472
4 2 -1.66399 -1.21063 0.845791 -0.00116847 0.000622084 0.00215312
101 5 10.6345 14.9622 9.39165 -0.00025772 -0.00473125 -0.00503568
40 6 -0.310852 0.0299395 1.79909 -0.00128429 0.00173661 0.000941538
37 6 -0.604828 -3.20965 0.499938 -0.000535784 0.00103927 0.00165738
38 6 -4.48674 -0.196875 1.4144 -0.00171842 -0.00124348 0.00449247
29 3 -1.90239 -0.102693 4.22475 0.000448215 0.000537372 0.00223336
110 5 10.2114 14.4445 8.35356 0.00185814 -0.00225296 -0.00085314
3 1 -0.51663 -2.05964 0.574732 -0.000975809 0.00108588 0.00159368
78 3 11.0022 12.0828 10.7807 0.0047415 -0.00100988 -0.00270829
103 5 11.978 12.4105 10.8368 0.00231447 0.000566535 -0.0010583
67 6 -0.822596 -1.5286 -0.395397 -0.00160568 0.000976182 0.00173819
31 1 -1.72267 -0.882772 -0.590056 -0.00190663 0.000701086 0.00223487
96 5 14.6379 10.1596 11.2977 -0.000971394 -0.000658127 0.00174026
102 5 10.7566 15.0443 10.5204 -0.00191654 9.6566e-05 -0.00363133
68 6 -2.57006 -1.43316 -1.00296 -0.00182783 0.000413116 0.00245328
33 6 -0.697689 -1.95276 -2.08973 -0.00205092 0.00212556 0.00109913
74 3 14.538 10.1644 10.1827 0.000477278 -0.00232728 0.00190852
104 5 10.7222 11.7264 11.9753 0.00653428 0.00245846 -0.00162555
1 1 -0.583167 -1.0225 -1.56674 -0.00221118 0.00174609 0.00176387
32 6 -0.420812 -0.264518 -2.3449 -0.00289158 0.00238846 0.00224382
ITEM: TIMESTEP
4000
ITEM: NUMBER OF ATOMS
122
ITEM: BOX BOUNDS pp pp pp
0.0000000000000000e+00 2.0000000000000000e+01
0.0000000000000000e+00 2.0000000000000000e+01
0.0000000000000000e+00 2.0000000000000000e+01
ITEM: ATOMS id type xu yu zu vx vy vz
108 5 9.04658 7.97177 7.66493 -0.000777078 0.000781587 -0.00174664
107 5 8.81409 9.10945 7.74675 0.000906256 0.00113454 -0.00125615
118 5 6.80648 8.13577 5.80843 0.00305821 0.00203412 -0.00239003
117 5 7.8721 7.815 4.60867 0.000319637 0.00295368 -0.00285574
88 4 8.37066 9.98519 5.52285 0.00328037 0.00234625 -0.00478956
80 3 9.21192 8.62785 6.74557 0.000586784 0.00183424 -0.000826667