ITEM: TIMESTEP
0
ITEM: NUMBER OF ATOMS
432
ITEM: BOX BOUNDS pp pp pp
0.0000000000000000e+00 4.5735666607145887e+01
0.0000000000000000e+00 3.2339999999999996e+01
0.0000000000000000e+00 1.9056527752977455e+01
ITEM: ATOMS id type xu yu zu vx vy vz
2 2 2.36001 0.700001 1.31541 0 0 0
3 1 3.35833 0.745425 3.95524 0 -0 0
4 2 6.1703 0.602214 3.95197 0 -0 -0
14 2 2.36001 6.09 1.31541 0 0 -0
15 1 3.35833 6.13543 3.95524 0 0 0
16 2 6.1703 5.99221 3.95197 0 0 -0
74 2 9.98261 0.70001 1.31535 0 0 -0
85 1 7.16772 6.03737 1.31798 0 0 0
86 2 9.98261 6.09001 1.31535 -0 -0 -0
75 1 10.981 0.745428 3.95539 -0 0 -0
87 1 10.981 6.13543 3.95539 -0 0 0
73 1 7.16772 0.647373 1.31798 -0 -0 0
26 2 2.36001 11.48 1.31541 0 0 0
27 1 3.35833 11.5254 3.95524 0 -0 0
28 2 6.1703 11.3822 3.95197 0 0 -0
97 1 7.16772 11.4274 1.31798 -0 -0 0
98 2 9.98261 11.48 1.31535 -0 -0 -0
99 1 10.981 11.5254 3.95539 -0 -0 -0
91 1 11.0143 5.95563 12.5168 0 -0 0
5 1 7.20178 0.56643 6.54014 0 -0 -0
6 2 2.32531 0.780736 6.53542 -0 -0 -0
7 1 3.39146 0.565594 12.5169 -0 0 -0
8 2 6.1376 0.781597 12.5207 0 0 -0
17 1 7.20178 5.95643 6.54014 -0 0 0
18 2 2.32531 6.17074 6.53542 0 0 -0
19 1 3.39146 5.95559 12.5169 0 -0 0
20 2 6.1376 6.1716 12.5207 -0 -0 0
78 2 9.94806 0.780755 6.53533 -0 0 0
90 2 9.94806 6.17075 6.53533 -0 0 0
79 1 11.0143 0.565626 12.5168 -0 0 -0
103 1 11.0143 11.3456 12.5168 -0 -0 0
29 1 7.20178 11.3464 6.54014 0 -0 0
30 2 2.32531 11.5607 6.53542 0 -0 -0
31 1 3.39146 11.3456 12.5169 0 0 -0
32 2 6.1376 11.5616 12.5207 0 0 0
102 2 9.94806 11.5608 6.53533 0 -0 0
12 2 6.17176 0.701014 17.7411 0 0 -0
23 1 3.35694 6.03665 17.7387 -0 -0 -0
24 2 6.17176 6.09101 17.7411 -0 0 -0
94 2 9.98137 5.99163 15.1048 0 0 0
82 2 9.98137 0.601634 15.1048 -0 0 0
22 2 2.35876 5.99163 15.1046 0 0 -0
9 1 7.16939 0.746331 15.101 0 -0 0
10 2 2.35876 0.601631 15.1046 0 -0 -0
21 1 7.16939 6.13633 15.101 0 -0 -0
95 1 10.9797 6.03666 17.7386 -0 0 -0
11 1 3.35694 0.646646 17.7387 0 0 -0
83 1 10.9797 0.646655 17.7386 -0 -0 -0
106 2 9.98137 11.3816 15.1048 0 0 -0
34 2 2.35876 11.3816 15.1046 -0 0 -0
33 1 7.16939 11.5263 15.101 0 -0 -0
35 1 3.35694 11.4266 17.7387 -0 -0 -0
36 2 6.17176 11.481 17.7411 -0 0 -0
107 1 10.9797 11.4267 17.7386 -0 -0 0
38 2 2.36001 16.87 1.31541 -0 0 -0
39 1 3.35833 16.9154 3.95524 -0 0 -0
40 2 6.1703 16.7722 3.95197 0 -0 0
50 2 2.36001 22.26 1.31541 -0 -0 -0
51 1 3.35833 22.3054 3.95524 -0 -0 0
52 2 6.1703 22.1622 3.95197 -0 0 -0
110 2 9.98261 16.87 1.31535 -0 -0 -0
121 1 7.16772 22.2074 1.31798 -0 0 -0
122 2 9.98261 22.26 1.31535 -0 0 -0
111 1 10.981 16.9154 3.95539 -0 -0 0
123 1 10.981 22.3054 3.95539 -0 0 0
109 1 7.16772 16.8174 1.31798 0 0 0
62 2 2.36001 27.65 1.31541 -0 -0 -0
63 1 3.35833 27.6954 3.95524 0 0 -0
64 2 6.1703 27.5522 3.95197 -0 0 -0
133 1 7.16772 27.5974 1.31798 0 -0 0
134 2 9.98261 27.65 1.31535 0 -0 0
135 1 10.981 27.6954 3.95539 -0 -0 0
127 1 11.0143 22.1256 12.5168 0 0 0
41 1 7.20178 16.7364 6.54014 -0 0 -0
42 2 2.32531 16.9507 6.53542 -0 -0 -0
43 1 3.39146 16.7356 12.5169 -0 0 0
44 2 6.1376 16.9516 12.5207 0 -0 0
53 1 7.20178 22.1264 6.54014 0 0 0
54 2 2.32531 22.3407 6.53542 0 0 0
55 1 3.39146 22.1256 12.5169 -0 -0 0
56 2 6.1376 22.3416 12.5207 0 0 0
114 2 9.94806 16.9508 6.53533 0 0 -0
126 2 9.94806 22.3408 6.53533 -0 0 0
115 1 11.0143 16.7356 12.5168 0 -0 -0
139 1 11.0143 27.5156 12.5168 0 -0 -0
65 1 7.20178 27.5164 6.54014 0 0 0
66 2 2.32531 27.7307 6.53542 0 -0 -0
67 1 3.39146 27.5156 12.5169 0 -0 0
68 2 6.1376 27.7316 12.5207 -0 -0 -0
138 2 9.94806 27.7308 6.53533 0 -0 0
48 2 6.17176 16.871 17.7411 0 -0 -0
59 1 3.35694 22.2066 17.7387 0 -0 0
60 2 6.17176 22.261 17.7411 0 0 -0
130 2 9.98137 22.1616 15.1048 -0 -0 0
118 2 9.98137 16.7716 15.1048 -0 0 0
58 2 2.35876 22.1616 15.1046 0 0 -0
45 1 7.16939 16.9163 15.101 -0 0 -0
46 2 2.35876 16.7716 15.1046 -0 0 0
57 1 7.16939 22.3063 15.101 0 0 -0
131 1 10.9797 22.2067 17.7386 -0 -0 0
47 1 3.35694 16.8166 17.7387 0 0 0
119 1 10.9797 16.8167 17.7386 -0 0 -0
142 2 9.98137 27.5516 15.1048 -0 0 0
70 2 2.35876 27.5516 15.1046 0 0 -0
69 1 7.16939 27.6963 15.101 -0 0 -0
71 1 3.35694 27.5966 17.7387 0 -0 0
72 2 6.17176 27.651 17.7411 0 -0 0
143 1 10.9797 27.5967 17.7386 0 -0 -0
76 2 13.7927 0.602228 3.9518 0 0 0
88 2 13.7927 5.99223 3.9518 0 -0 -0
146 2 17.605 0.700013 1.31556 0 -0 -0
147 1 18.604 0.745408 3.9549 0 -0 0
148 2 21.415 0.60226 3.9517 0 0 0
157 1 14.7906 6.03739 1.31803 0 0 -0
158 2 17.605 6.09001 1.31556 -0 0 0
159 1 18.604 6.13541 3.9549 -0 0 -0
160 2 21.415 5.99226 3.9517 0 -0 0
229 1 22.4135 6.0374 1.31803 0 0 -0
145 1 14.7906 0.647387 1.31803 -0 0 -0
217 1 22.4135 0.647402 1.31803 0 0 -0
100 2 13.7927 11.3822 3.9518 -0 -0 -0
169 1 14.7906 11.4274 1.31803 0 0 -0
170 2 17.605 11.48 1.31556 -0 0 0
171 1 18.604 11.5254 3.9549 0 0 -0
172 2 21.415 11.3823 3.9517 -0 -0 -0
241 1 22.4135 11.4274 1.31803 0 -0 -0
77 1 14.8249 0.566488 6.54023 0 0 0
80 2 13.76 0.781586 12.5206 0 0 0
89 1 14.8249 5.95649 6.54023 0 -0 -0
92 2 13.76 6.17159 12.5206 0 -0 -0
149 1 22.4483 0.56657 6.54023 -0 0 -0
150 2 17.57 0.780715 6.53557 -0 -0 0
151 1 18.6376 0.565706 12.5168 0 -0 0
152 2 21.3817 0.781524 12.5203 0 0 0
161 1 22.4483 5.95657 6.54023 -0 0 0
162 2 17.57 6.17072 6.53557 -0 -0 -0
163 1 18.6376 5.95571 12.5168 -0 -0 0
164 2 21.3817 6.17152 12.5203 -0 0 -0
176 2 21.3817 11.5615 12.5203 -0 -0 0
175 1 18.6376 11.3457 12.5168 0 -0 0
174 2 17.57 11.5607 6.53557 0 0 0
101 1 14.8249 11.3465 6.54023 0 0 -0
104 2 13.76 11.5616 12.5206 0 0 0
173 1 22.4483 11.3466 6.54023 0 0 0
84 2 13.7943 0.70102 17.741 -0 -0 0
166 2 17.6037 5.99166 15.1049 0 -0 -0
96 2 13.7943 6.09102 17.741 -0 0 0
156 2 21.4166 0.701022 17.7407 0 0 -0
167 1 18.6026 6.03667 17.7386 0 -0 0
168 2 21.4166 6.09102 17.7407 -0 -0 0
165 1 22.4152 6.1363 15.1019 0 -0 0
154 2 17.6037 0.601659 15.1049 -0 0 -0
153 1 22.4152 0.746299 15.1019 0 0 0
93 1 14.7922 6.13632 15.1012 -0 -0 0
81 1 14.7922 0.74632 15.1012 -0 -0 0
155 1 18.6026 0.646673 17.7386 0 -0 0
178 2 17.6037 11.3817 15.1049 -0 -0 -0
177 1 22.4152 11.5263 15.1019 0 0 0
105 1 14.7922 11.5263 15.1012 -0 0 -0
108 2 13.7943 11.481 17.741 -0 -0 0
179 1 18.6026 11.4267 17.7386 0 0 0
180 2 21.4166 11.481 17.7407 -0 -0 -0
112 2 13.7927 16.7722 3.9518 -0 0 -0
124 2 13.7927 22.1622 3.9518 -0 0 -0
182 2 17.605 16.87 1.31556 0 -0 -0
183 1 18.604 16.9154 3.9549 0 -0 0
184 2 21.415 16.7723 3.9517 -0 -0 0
193 1 14.7906 22.2074 1.31803 0 -0 0
194 2 17.605 22.26 1.31556 -0 -0 -0
195 1 18.604 22.3054 3.9549 -0 -0 -0
196 2 21.415 22.1623 3.9517 -0 0 0
265 1 22.4135 22.2074 1.31803 0 -0 0
181 1 14.7906 16.8174 1.31803 0 -0 0
253 1 22.4135 16.8174 1.31803 0 -0 0
136 2 13.7927 27.5522 3.9518 0 0 -0
205 1 14.7906 27.5974 1.31803 0 -0 0
206 2 17.605 27.65 1.31556 -0 0 0
207 1 18.604 27.6954 3.9549 0 -0 0
208 2 21.415 27.5523 3.9517 0 0 -0
277 1 22.4135 27.5974 1.31803 0 -0 -0
113 1 14.8249 16.7365 6.54023 -0 -0 0
116 2 13.76 16.9516 12.5206 -0 0 -0
125 1 14.8249 22.1265 6.54023 0 -0 -0
128 2 13.76 22.3416 12.5206 0 0 0
185 1 22.4483 16.7366 6.54023 -0 0 -0
186 2 17.57 16.9507 6.53557 0 0 -0
187 1 18.6376 16.7357 12.5168 -0 0 -0
188 2 21.3817 16.9515 12.5203 -0 0 -0
197 1 22.4483 22.1266 6.54023 -0 0 0
198 2 17.57 22.3407 6.53557 -0 0 -0
199 1 18.6376 22.1257 12.5168 0 0 0
200 2 21.3817 22.3415 12.5203 0 -0 0
212 2 21.3817 27.7315 12.5203 -0 -0 -0
211 1 18.6376 27.5157 12.5168 -0 -0 -0
210 2 17.57 27.7307 6.53557 -0 0 0
137 1 14.8249 27.5165 6.54023 0 0 0
140 2 13.76 27.7316 12.5206 -0 0 -0
209 1 22.4483 27.5166 6.54023 -0 -0 0
120 2 13.7943 16.871 17.741 0 -0 0
202 2 17.6037 22.1617 15.1049 0 0 -0
132 2 13.7943 22.261 17.741 -0 -0 0
192 2 21.4166 16.871 17.7407 -0 -0 -0
203 1 18.6026 22.2067 17.7386 -0 0 0
204 2 21.4166 22.261 17.7407 0 0 -0
201 1 22.4152 22.3063 15.1019 0 -0 0
190 2 17.6037 16.7717 15.1049 -0 0 -0
189 1 22.4152 16.9163 15.1019 -0 0 0
129 1 14.7922 22.3063 15.1012 0 0 -0
117 1 14.7922 16.9163 15.1012 -0 -0 0
191 1 18.6026 16.8167 17.7386 0 0 0
214 2 17.6037 27.5517 15.1049 -0 0 0
213 1 22.4152 27.6963 15.1019 0 -0 -0
141 1 14.7922 27.6963 15.1012 -0 -0 0
144 2 13.7943 27.651 17.741 -0 -0 -0
215 1 18.6026 27.5967 17.7386 0 -0 -0
216 2 21.4166 27.651 17.7407 -0 -0 0
218 2 25.2274 0.7 1.31585 0 0 -0
219 1 26.2269 0.745375 3.95419 -0 -0 0
220 2 29.0374 0.602262 3.9518 -0 -0 0
230 2 25.2274 6.09 1.31585 0 0 0
231 1 26.2269 6.13538 3.95419 0 -0 0
232 2 29.0374 5.99226 3.9518 -0 -0 -0
290 2 32.8501 0.699981 1.31589 -0 0 0
301 1 30.0361 6.03739 1.31799 -0 0 -0
302 2 32.8501 6.08998 1.31589 -0 -0 0
291 1 33.8495 0.745369 3.95405 -0 -0 -0
303 1 33.8495 6.13537 3.95405 0 -0 -0
289 1 30.0361 0.647387 1.31799 0 -0 0
242 2 25.2274 11.48 1.31585 0 0 -0
243 1 26.2269 11.5254 3.95419 0 -0 0
244 2 29.0374 11.3823 3.9518 0 -0 -0
313 1 30.0361 11.4274 1.31799 -0 0 0
314 2 32.8501 11.48 1.31589 -0 -0 -0
315 1 33.8495 11.5254 3.95405 0 0 -0
307 1 33.8832 5.95568 12.517 0 -0 -0
221 1 30.0711 0.566555 6.54012 -0 -0 0
222 2 25.1918 0.780624 6.53595 -0 0 0
223 1 26.2609 0.56574 12.5168 0 -0 -0
224 2 29.0037 0.781451 12.52 -0 0 -0
233 1 30.0711 5.95656 6.54012 -0 0 0
234 2 25.1918 6.17062 6.53595 -0 0 -0
235 1 26.2609 5.95574 12.5168 -0 0 -0
236 2 29.0037 6.17145 12.52 0 -0 -0
294 2 32.8143 0.780598 6.53602 0 -0 -0
306 2 32.8143 6.1706 6.53602 0 0 0
295 1 33.8832 0.565679 12.517 -0 0 -0
319 1 33.8832 11.3457 12.517 -0 -0 -0
245 1 30.0711 11.3466 6.54012 -0 -0 0
246 2 25.1918 11.5606 6.53595 -0 -0 -0
247 1 26.2609 11.3457 12.5168 0 -0 0
248 2 29.0037 11.5615 12.52 -0 0 0
318 2 32.8143 11.5606 6.53602 0 -0 -0
228 2 29.0391 0.700999 17.7405 0 -0 0
239 1 26.2254 6.03667 17.7386 -0 -0 0
240 2 29.0391 6.091 17.7405 -0 -0 -0
225 1 30.038 0.746275 15.1024 -0 -0 -0
226 2 25.2259 0.601672 15.105 -0 0 -0
237 1 30.038 6.13628 15.1024 -0 0 -0
238 2 25.2259 5.99167 15.105 -0 0 -0
298 2 32.8486 0.601659 15.1048 0 0 -0
310 2 32.8486 5.99166 15.1048 0 0 -0
311 1 33.8478 6.03665 17.7387 0 -0 -0
227 1 26.2254 0.646667 17.7386 0 -0 -0
299 1 33.8478 0.646646 17.7387 -0 0 0
251 1 26.2254 11.4267 17.7386 0 0 -0
252 2 29.0391 11.481 17.7405 0 -0 0
249 1 30.038 11.5263 15.1024 -0 -0 -0
250 2 25.2259 11.3817 15.105 -0 -0 0
322 2 32.8486 11.3817 15.1048 -0 0 -0
323 1 33.8478 11.4266 17.7387 -0 -0 -0
254 2 25.2274 16.87 1.31585 -0 0 0
255 1 26.2269 16.9154 3.95419 -0 0 -0
256 2 29.0374 16.7723 3.9518 -0 0 0
266 2 25.2274 22.26 1.31585 0 0 -0
267 1 26.2269 22.3054 3.95419 0 0 0
268 2 29.0374 22.1623 3.9518 0 -0 -0
326 2 32.8501 16.87 1.31589 -0 -0 0
337 1 30.0361 22.2074 1.31799 0 0 -0
338 2 32.8501 22.26 1.31589 0 0 0
327 1 33.8495 16.9154 3.95405 -0 -0 -0
339 1 33.8495 22.3054 3.95405 0 0 0
325 1 30.0361 16.8174 1.31799 -0 -0 -0
278 2 25.2274 27.65 1.31585 -0 0 -0
279 1 26.2269 27.6954 3.95419 -0 0 -0
280 2 29.0374 27.5523 3.9518 0 -0 -0
349 1 30.0361 27.5974 1.31799 -0 0 -0
350 2 32.8501 27.65 1.31589 -0 0 -0
351 1 33.8495 27.6954 3.95405 0 0 -0
343 1 33.8832 22.1257 12.517 0 -0 0
257 1 30.0711 16.7366 6.54012 -0 -0 -0
258 2 25.1918 16.9506 6.53595 0 -0 -0
259 1 26.2609 16.7357 12.5168 -0 -0 -0
260 2 29.0037 16.9515 12.52 -0 -0 0
269 1 30.0711 22.1266 6.54012 0 0 0
270 2 25.1918 22.3406 6.53595 0 0 0
271 1 26.2609 22.1257 12.5168 0 0 0
272 2 29.0037 22.3415 12.52 0 0 0
330 2 32.8143 16.9506 6.53602 0 -0 -0
342 2 32.8143 22.3406 6.53602 0 -0 0
331 1 33.8832 16.7357 12.517 -0 -0 -0
355 1 33.8832 27.5157 12.517 -0 0 0
281 1 30.0711 27.5166 6.54012 -0 0 -0
282 2 25.1918 27.7306 6.53595 -0 0 -0
283 1 26.2609 27.5157 12.5168 0 -0 0
284 2 29.0037 27.7315 12.52 -0 -0 -0
354 2 32.8143 27.7306 6.53602 -0 -0 0
264 2 29.0391 16.871 17.7405 -0 0 0
275 1 26.2254 22.2067 17.7386 0 -0 0
276 2 29.0391 22.261 17.7405 0 0 0
261 1 30.038 16.9163 15.1024 -0 0 0
262 2 25.2259 16.7717 15.105 0 -0 0
273 1 30.038 22.3063 15.1024 -0 -0 0
274 2 25.2259 22.1617 15.105 0 0 -0
334 2 32.8486 16.7717 15.1048 0 0 0
346 2 32.8486 22.1617 15.1048 0 -0 0
347 1 33.8478 22.2066 17.7387 -0 -0 0
263 1 26.2254 16.8167 17.7386 -0 0 -0
335 1 33.8478 16.8166 17.7387 -0 0 -0
287 1 26.2254 27.5967 17.7386 0 0 -0
288 2 29.0391 27.651 17.7405 -0 -0 -0
285 1 30.038 27.6963 15.1024 -0 -0 0
286 2 25.2259 27.5517 15.105 0 -0 -0
358 2 32.8486 27.5517 15.1048 -0 0 0
359 1 33.8478 27.5966 17.7387 -0 0 -0
292 2 36.6602 0.602239 3.95202 -0 0 -0
304 2 36.6602 5.99224 3.95202 -0 -0 0
362 2 40.4729 0.69999 1.31566 0 0 -0
363 1 41.4717 0.745402 3.95461 -0 -0 -0
364 2 44.2832 0.602221 3.95208 -0 -0 0
373 1 37.6584 6.03737 1.31792 -0 0 0
374 2 40.4729 6.08999 1.31566 0 -0 0
375 1 41.4717 6.1354 3.95461 -0 -0 0
376 2 44.2832 5.99222 3.95208 0 -0 -0
13 1 -0.454896 6.03737 1.31792 -0 -0 -0
361 1 37.6584 0.647372 1.31792 -0 0 0
1 1 -0.454896 0.647367 1.31792 0 -0 -0
316 2 36.6602 11.3822 3.95202 -0 0 0
385 1 37.6584 11.4274 1.31792 0 0 -0
386 2 40.4729 11.48 1.31566 0 -0 -0
387 1 41.4717 11.5254 3.95461 -0 -0 -0
388 2 44.2832 11.3822 3.95208 0 -0 0
25 1 -0.454896 11.4274 1.31792 0 0 0
377 1 -0.420682 5.95643 6.54002 0 -0 -0
293 1 37.6931 0.566473 6.54 0 0 -0
296 2 36.6267 0.781474 12.5201 -0 0 0
305 1 37.6931 5.95647 6.54 0 -0 -0
308 2 36.6267 6.17147 12.5201 0 0 0
366 2 40.4376 0.78067 6.53573 -0 -0 0
367 1 41.505 0.565616 12.517 -0 0 0
368 2 44.2502 0.781554 12.5205 -0 -0 -0
378 2 40.4376 6.17067 6.53573 0 0 -0
379 1 41.505 5.95562 12.517 -0 0 -0
380 2 44.2502 6.17155 12.5205 -0 -0 0
365 1 -0.420682 0.566427 6.54002 -0 0 -0
389 1 -0.420682 11.3464 6.54002 0 -0 0
392 2 44.2502 11.5616 12.5205 0 0 0
391 1 41.505 11.3456 12.517 0 -0 -0
317 1 37.6931 11.3465 6.54 -0 -0 0
390 2 40.4376 11.5607 6.53573 0 -0 -0
320 2 36.6267 11.5615 12.5201 -0 0 0
300 2 36.6619 0.700987 17.7406 0 -0 0
382 2 40.4715 5.99164 15.1046 0 0 -0
370 2 40.4715 0.601643 15.1046 0 0 -0
312 2 36.6619 6.09099 17.7406 0 0 -0
372 2 44.2847 0.701 17.7409 -0 -0 -0
383 1 41.4701 6.03664 17.7387 -0 0 -0
384 2 44.2847 6.091 17.7409 0 -0 0
309 1 37.6603 6.13628 15.1021 0 0 -0
297 1 37.6603 0.746285 15.1021 0 0 0
369 1 -0.453105 0.746317 15.1014 0 -0 0
381 1 -0.453105 6.13632 15.1014 -0 -0 -0
371 1 41.4701 0.646642 17.7387 -0 -0 -0
394 2 40.4715 11.3816 15.1046 -0 0 -0
321 1 37.6603 11.5263 15.1021 0 -0 0
324 2 36.6619 11.481 17.7406 0 -0 -0
395 1 41.4701 11.4266 17.7387 -0 0 -0
396 2 44.2847 11.481 17.7409 0 0 -0
393 1 -0.453105 11.5263 15.1014 0 -0 -0
328 2 36.6602 16.7722 3.95202 -0 0 0
340 2 36.6602 22.1622 3.95202 0 -0 -0
398 2 40.4729 16.87 1.31566 0 0 0
399 1 41.4717 16.9154 3.95461 -0 -0 -0
400 2 44.2832 16.7722 3.95208 -0 -0 0
409 1 37.6584 22.2074 1.31792 -0 0 0
410 2 40.4729 22.26 1.31566 -0 -0 0
411 1 41.4717 22.3054 3.95461 -0 0 -0
412 2 44.2832 22.1622 3.95208 -0 -0 0
49 1 -0.454896 22.2074 1.31792 -0 0 -0
397 1 37.6584 16.8174 1.31792 0 0 0
37 1 -0.454896 16.8174 1.31792 0 -0 -0
352 2 36.6602 27.5522 3.95202 0 0 -0
421 1 37.6584 27.5974 1.31792 -0 -0 0
422 2 40.4729 27.65 1.31566 -0 0 -0
423 1 41.4717 27.6954 3.95461 -0 0 -0
424 2 44.2832 27.5522 3.95208 0 0 0
61 1 -0.454896 27.5974 1.31792 0 -0 -0
413 1 -0.420682 22.1264 6.54002 -0 -0 -0
329 1 37.6931 16.7365 6.54 0 0 0
332 2 36.6267 16.9515 12.5201 0 0 -0
341 1 37.6931 22.1265 6.54 -0 -0 0
344 2 36.6267 22.3415 12.5201 -0 0 -0
402 2 40.4376 16.9507 6.53573 0 -0 -0
403 1 41.505 16.7356 12.517 -0 0 0
404 2 44.2502 16.9516 12.5205 0 -0 0
414 2 40.4376 22.3407 6.53573 0 0 -0
415 1 41.505 22.1256 12.517 -0 0 0
416 2 44.2502 22.3416 12.5205 -0 0 0
401 1 -0.420682 16.7364 6.54002 -0 0 0
425 1 -0.420682 27.5164 6.54002 -0 0 -0
428 2 44.2502 27.7316 12.5205 -0 -0 -0
427 1 41.505 27.5156 12.517 -0 0 0
353 1 37.6931 27.5165 6.54 -0 0 -0
426 2 40.4376 27.7307 6.53573 -0 -0 -0
356 2 36.6267 27.7315 12.5201 0 0 0
336 2 36.6619 16.871 17.7406 0 0 -0
418 2 40.4715 22.1616 15.1046 0 -0 -0
406 2 40.4715 16.7716 15.1046 -0 0 -0
348 2 36.6619 22.261 17.7406 0 0 -0
408 2 44.2847 16.871 17.7409 -0 -0 -0
419 1 41.4701 22.2066 17.7387 -0 -0 -0
420 2 44.2847 22.261 17.7409 0 0 0
345 1 37.6603 22.3063 15.1021 0 0 -0
333 1 37.6603 16.9163 15.1021 0 0 0
405 1 -0.453105 16.9163 15.1014 -0 0 -0
417 1 -0.453105 22.3063 15.1014 0 0 -0
407 1 41.4701 16.8166 17.7387 -0 -0 0
430 2 40.4715 27.5516 15.1046 0 0 0
357 1 37.6603 27.6963 15.1021 0 -0 0
360 2 36.6619 27.651 17.7406 0 -0 -0
431 1 41.4701 27.5966 17.7387 -0 0 -0
432 2 44.2847 27.651 17.7409 -0 0 -0
429 1 -0.453105 27.6963 15.1014 0 -0 0
ITEM: TIMESTEP
1000
ITEM: NUMBER OF ATOMS
432
ITEM: BOX BOUNDS pp pp pp
0.0000000000000000e+00 4.5735666607145887e+01
0.0000000000000000e+00 3.2339999999999996e+01
0.0000000000000000e+00 1.9056527752977455e+01
ITEM: ATOMS id type xu yu zu vx vy vz
2 2 2.11257 1.1852 1.18691 -0.000102977 0.00012618 -0.00031217
3 1 3.73232 2.00987 3.38316 0.000218265 0.000463543 -0.000681142
401 1 0.294082 15.5073 4.90821 -0.000348648 2.12046e-05 -2.07501e-05
14 2 2.11257 6.5752 1.18691 -0.000102976 0.00012618 -0.00031217
15 1 3.73232 7.39987 3.38316 0.000218265 0.000463543 -0.000681142
16 2 5.46224 4.81233 3.36604 8.30011e-05 -0.000149987 -0.000638198
74 2 9.73506 1.18518 1.18692 -0.000102873 0.000126281 -0.000312549
85 1 7.07156 5.72457 1.19438 0.000192126 -0.000262661 -0.00019041
86 2 9.73506 6.57518 1.18692 -0.000102873 0.000126281 -0.000312549
75 1 11.3548 2.0098 3.38317 0.000218643 0.000463374 -0.000680935
87 1 11.3548 7.3998 3.38317 0.000218643 0.000463374 -0.000680934
73 1 7.07156 0.334571 1.19438 0.000192126 -0.000262661 -0.00019041
26 2 2.11257 11.9652 1.18691 -0.000102977 0.00012618 -0.00031217
27 1 3.73232 12.7899 3.38316 0.000218265 0.000463543 -0.000681142
28 2 5.46224 10.2023 3.36604 8.3001e-05 -0.000149987 -0.000638198
97 1 7.07156 11.1146 1.19438 0.000192126 -0.000262661 -0.000190409
98 2 9.73506 11.9652 1.18692 -0.000102873 0.000126282 -0.00031255
99 1 11.3548 12.7898 3.38317 0.000218643 0.000463374 -0.000680935
107 1 10.8833 11.1103 17.8627 0.00021942 -0.000276678 0.000159381
389 1 0.294082 10.1173 4.90821 -0.000348648 2.12052e-05 -2.07499e-05
6 2 1.26113 2.04166 4.92007 -0.000102649 -0.000413992 0.000382476
377 1 0.294082 4.72725 4.90821 -0.000348648 2.12051e-05 -2.07501e-05
8 2 5.07154 2.04126 14.1324 -2.48741e-05 -0.000414325 -0.000289925
17 1 7.9166 4.72725 4.90821 -0.000348803 2.05383e-05 -2.06206e-05
18 2 1.26113 7.43166 4.92007 -0.000102649 -0.000413991 0.000382476
19 1 4.10424 4.72906 14.1494 -0.000383873 3.75771e-05 5.50456e-05
20 2 5.07154 7.43126 14.1324 -2.48743e-05 -0.000414325 -0.000289925
78 2 8.88367 2.04167 4.92008 -0.000102925 -0.00041449 0.000382617
90 2 8.88367 7.43167 4.92008 -0.000102925 -0.000414489 0.000382617
36 2 5.9214 11.9692 17.8696 -0.000101183 0.000114047 0.000282156
35 1 3.26073 11.1102 17.8627 0.000219522 -0.000276752 0.000159648
29 1 7.9166 10.1172 4.90821 -0.000348803 2.05381e-05 -2.06208e-05
30 2 1.26113 12.8217 4.92007 -0.000102649 -0.000413991 0.000382476
31 1 4.10424 10.1191 14.1494 -0.000383873 3.75772e-05 5.50454e-05
32 2 5.07154 12.8213 14.1324 -2.4874e-05 -0.000414325 -0.000289925
102 2 8.88367 12.8217 4.92008 -0.000102925 -0.00041449 0.000382617
12 2 5.9214 1.18924 17.8696 -0.000101182 0.000114047 0.000282155
23 1 3.26073 5.72023 17.8627 0.000219522 -0.000276752 0.000159648
24 2 5.9214 6.57924 17.8696 -0.000101183 0.000114047 0.000282155
94 2 9.27325 4.81307 15.6919 -2.01133e-05 -0.000153197 0.000690353
43 1 4.10424 15.5091 14.1494 -0.000383873 3.75771e-05 5.50454e-05
22 2 1.65071 4.81299 15.6919 -2.07274e-05 -0.000153495 0.000690113
9 1 7.54406 2.00972 15.6733 0.00023394 0.000451756 0.000621191
41 1 7.9166 15.5072 4.90821 -0.000348803 2.05388e-05 -2.06208e-05
21 1 7.54406 7.39972 15.6733 0.00023394 0.000451756 0.000621191
95 1 10.8833 5.72027 17.8627 0.00021942 -0.000276678 0.000159381
11 1 3.26073 0.330226 17.8627 0.000219522 -0.000276752 0.000159648
83 1 10.8833 0.330274 17.8627 0.00021942 -0.000276678 0.000159381
106 2 9.27325 10.2031 15.6919 -2.01134e-05 -0.000153196 0.000690353
34 2 1.65071 10.203 15.6919 -2.07272e-05 -0.000153494 0.000690114
33 1 7.54406 12.7897 15.6733 0.00023394 0.000451755 0.000621191
40 2 5.46224 15.5923 3.36604 8.3001e-05 -0.000149986 -0.000638198
118 2 9.27325 15.5931 15.6919 -2.01133e-05 -0.000153197 0.000690353
46 2 1.65071 15.593 15.6919 -2.07269e-05 -0.000153495 0.000690113
38 2 2.11257 17.3552 1.18691 -0.000102977 0.00012618 -0.000312169
39 1 3.73232 18.1799 3.38316 0.000218265 0.000463543 -0.000681142
365 1 0.294082 -0.662747 4.90821 -0.000348648 2.12049e-05 -2.07498e-05
50 2 2.11257 22.7452 1.18691 -0.000102977 0.00012618 -0.00031217
51 1 3.73232 23.5699 3.38316 0.000218265 0.000463543 -0.000681142
52 2 5.46224 20.9823 3.36604 8.30001e-05 -0.000149986 -0.000638199
110 2 9.73506 17.3552 1.18692 -0.000102873 0.000126282 -0.000312549
121 1 7.07156 21.8946 1.19438 0.000192126 -0.000262661 -0.00019041
122 2 9.73506 22.7452 1.18692 -0.000102873 0.000126282 -0.000312549
111 1 11.3548 18.1798 3.38317 0.000218643 0.000463374 -0.000680935
123 1 11.3548 23.5698 3.38317 0.000218643 0.000463374 -0.000680935
109 1 7.07156 16.5046 1.19438 0.000192126 -0.000262661 -0.000190409
62 2 2.11257 28.1352 1.18691 -0.000102977 0.00012618 -0.00031217
63 1 3.73232 28.9599 3.38316 0.000218265 0.000463543 -0.000681142
64 2 5.46224 26.3723 3.36604 8.30007e-05 -0.000149987 -0.000638198
133 1 7.07156 27.2846 1.19438 0.000192126 -0.000262661 -0.00019041
134 2 9.73506 28.1352 1.18692 -0.000102872 0.000126282 -0.000312549
135 1 11.3548 28.9598 3.38317 0.000218643 0.000463374 -0.000680935
143 1 10.8833 27.2803 17.8627 0.00021942 -0.000276678 0.000159381
425 1 0.294082 26.2873 4.90821 -0.000348648 2.12051e-05 -2.07498e-05
42 2 1.26113 18.2117 4.92007 -0.000102649 -0.000413991 0.000382477
413 1 0.294082 20.8973 4.90821 -0.000348648 2.12048e-05 -2.07501e-05
44 2 5.07154 18.2113 14.1324 -2.48743e-05 -0.000414325 -0.000289925
53 1 7.9166 20.8972 4.90821 -0.000348803 2.05383e-05 -2.06208e-05
54 2 1.26113 23.6017 4.92007 -0.000102649 -0.000413991 0.000382476
55 1 4.10424 20.8991 14.1494 -0.000383873 3.75771e-05 5.50453e-05
56 2 5.07154 23.6013 14.1324 -2.48743e-05 -0.000414324 -0.000289925
114 2 8.88367 18.2117 4.92008 -0.000102927 -0.000414489 0.000382618
126 2 8.88367 23.6017 4.92008 -0.000102925 -0.00041449 0.000382617
72 2 5.9214 28.1392 17.8696 -0.000101183 0.000114047 0.000282155
71 1 3.26073 27.2802 17.8627 0.000219522 -0.000276752 0.000159648
65 1 7.9166 26.2872 4.90821 -0.000348804 2.05382e-05 -2.06207e-05
66 2 1.26113 28.9917 4.92007 -0.000102649 -0.000413991 0.000382476
67 1 4.10424 26.2891 14.1494 -0.000383873 3.7577e-05 5.50453e-05
68 2 5.07154 28.9913 14.1324 -2.48745e-05 -0.000414324 -0.000289925
138 2 8.88367 28.9917 4.92008 -0.000102925 -0.000414489 0.000382617
48 2 5.9214 17.3592 17.8696 -0.000101183 0.000114046 0.000282155
59 1 3.26073 21.8902 17.8627 0.000219522 -0.000276752 0.000159648
60 2 5.9214 22.7492 17.8696 -0.000101183 0.000114047 0.000282155
130 2 9.27325 20.9831 15.6919 -2.01134e-05 -0.000153197 0.000690353
7 1 4.10424 -0.66094 14.1494 -0.000383872 3.75773e-05 5.50452e-05
58 2 1.65071 20.983 15.6919 -2.07272e-05 -0.000153495 0.000690114
45 1 7.54406 18.1797 15.6733 0.00023394 0.000451755 0.000621191
5 1 7.9166 -0.662755 4.90821 -0.000348803 2.05386e-05 -2.06206e-05
57 1 7.54406 23.5697 15.6733 0.00023394 0.000451756 0.000621191
131 1 10.8833 21.8903 17.8627 0.00021942 -0.000276678 0.000159381
47 1 3.26073 16.5002 17.8627 0.000219522 -0.000276752 0.000159649
119 1 10.8833 16.5003 17.8627 0.00021942 -0.000276679 0.000159381
142 2 9.27325 26.3731 15.6919 -2.01137e-05 -0.000153196 0.000690353
70 2 1.65071 26.373 15.6919 -2.07273e-05 -0.000153495 0.000690113
69 1 7.54406 28.9597 15.6733 0.00023394 0.000451756 0.000621191
4 2 5.46224 -0.577672 3.36604 8.30004e-05 -0.000149987 -0.000638198
82 2 9.27325 -0.57693 15.6919 -2.01131e-05 -0.000153196 0.000690353
10 2 1.65071 -0.577007 15.6919 -2.07273e-05 -0.000153494 0.000690114
115 1 11.7268 15.5091 14.1494 -0.000384286 3.72041e-05 5.52236e-05
88 2 13.0848 4.81241 3.36602 8.39746e-05 -0.000149636 -0.000638542
146 2 17.3577 1.18512 1.18692 -0.000102966 0.000125592 -0.000313246
147 1 18.9775 2.00973 3.38319 0.000219023 0.000463167 -0.000681179
187 1 19.3495 15.5091 14.1494 -0.000384369 3.70765e-05 5.55916e-05
157 1 14.6942 5.72457 1.19435 0.000192097 -0.000262871 -0.000190146
158 2 17.3577 6.57512 1.18692 -0.000102966 0.000125591 -0.000313246
159 1 18.9775 7.39973 3.38319 0.000219023 0.000463168 -0.000681179
160 2 20.7075 4.81253 3.36604 8.56085e-05 -0.000148603 -0.000638715
229 1 22.3169 5.72467 1.19438 0.000192001 -0.00026244 -0.000189751
145 1 14.6942 0.334565 1.19435 0.000192097 -0.000262871 -0.000190146
217 1 22.3169 0.334666 1.19438 0.000192001 -0.00026244 -0.000189751
100 2 13.0848 10.2024 3.36602 8.39746e-05 -0.000149636 -0.000638541
169 1 14.6942 11.1146 1.19435 0.000192097 -0.000262871 -0.000190146
170 2 17.3577 11.9651 1.18692 -0.000102966 0.000125592 -0.000313247
171 1 18.9775 12.7897 3.38319 0.000219023 0.000463167 -0.000681179
172 2 20.7075 10.2025 3.36604 8.56084e-05 -0.000148604 -0.000638715
241 1 22.3169 11.1147 1.19438 0.000192001 -0.00026244 -0.000189752
103 1 11.7268 10.1191 14.1494 -0.000384287 3.72039e-05 5.52235e-05
80 2 12.6941 2.04127 14.1324 -2.60555e-05 -0.000414582 -0.000290974
89 1 15.5392 4.72725 4.9082 -0.000349024 2.01344e-05 -2.085e-05
92 2 12.6941 7.43127 14.1324 -2.60556e-05 -0.000414582 -0.000290974
180 2 21.1667 11.9694 17.8696 -0.000101538 0.000115099 0.00028414
150 2 16.5063 2.04169 4.92007 -0.000104251 -0.000413768 0.000383874
91 1 11.7268 4.72905 14.1494 -0.000384287 3.72042e-05 5.52236e-05
152 2 20.3168 2.04128 14.1324 -2.74469e-05 -0.00041389 -0.000292111
179 1 18.506 11.1104 17.8627 0.000219393 -0.000276169 0.000158895
162 2 16.5063 7.43169 4.92007 -0.00010425 -0.000413768 0.000383873
163 1 19.3495 4.72907 14.1494 -0.000384369 3.70763e-05 5.55917e-05
164 2 20.3168 7.43128 14.1324 -2.74467e-05 -0.000413889 -0.000292111
176 2 20.3168 12.8213 14.1324 -2.74485e-05 -0.000413889 -0.000292112
175 1 19.3495 10.1191 14.1494 -0.000384369 3.70766e-05 5.55919e-05
174 2 16.5063 12.8217 4.92007 -0.000104251 -0.000413767 0.000383873
101 1 15.5392 10.1172 4.9082 -0.000349023 2.01346e-05 -2.08499e-05
104 2 12.6941 12.8213 14.1324 -2.6055e-05 -0.000414581 -0.000290973
108 2 13.544 11.9692 17.8696 -0.000101216 0.000114186 0.000282814
84 2 13.544 1.18923 17.8696 -0.000101217 0.000114186 0.000282814
166 2 16.8959 4.8132 15.6919 -1.85767e-05 -0.00015229 0.000690376
96 2 13.544 6.57923 17.8696 -0.000101216 0.000114186 0.000282814
156 2 21.1667 1.18935 17.8696 -0.000101538 0.000115098 0.000284139
167 1 18.506 5.72036 17.8627 0.000219393 -0.000276169 0.000158895
168 2 21.1667 6.57935 17.8696 -0.000101538 0.000115098 0.000284139
165 1 22.7894 7.39967 15.6733 0.000235365 0.000452027 0.000621527
113 1 15.5392 15.5072 4.9082 -0.000349023 2.01344e-05 -2.08498e-05
153 1 22.7894 2.00967 15.6733 0.000235365 0.000452027 0.000621527
93 1 15.1667 7.39964 15.6733 0.000234693 0.000451541 0.000621162
81 1 15.1667 2.00964 15.6733 0.000234692 0.000451541 0.000621162
155 1 18.506 0.33036 17.8627 0.000219393 -0.000276168 0.000158895
178 2 16.8959 10.2032 15.6919 -1.85758e-05 -0.00015229 0.000690376
177 1 22.7894 12.7897 15.6733 0.000235365 0.000452027 0.000621527
105 1 15.1667 12.7896 15.6733 0.000234692 0.000451542 0.000621162
112 2 13.0848 15.5924 3.36602 8.39744e-05 -0.000149636 -0.000638542
184 2 20.7075 15.5925 3.36604 8.56092e-05 -0.000148604 -0.000638715
190 2 16.8959 15.5932 15.6919 -1.85763e-05 -0.000152289 0.000690376
79 1 11.7268 -0.66095 14.1494 -0.000384287 3.72041e-05 5.52236e-05
124 2 13.0848 20.9824 3.36602 8.39748e-05 -0.000149636 -0.000638541
182 2 17.3577 17.3551 1.18692 -0.000102966 0.000125591 -0.000313246
183 1 18.9775 18.1797 3.38319 0.000219023 0.000463167 -0.000681178
151 1 19.3495 -0.660935 14.1494 -0.000384369 3.70763e-05 5.55917e-05
193 1 14.6942 21.8946 1.19435 0.000192097 -0.000262871 -0.000190146
194 2 17.3577 22.7451 1.18692 -0.000102966 0.000125591 -0.000313246
195 1 18.9775 23.5697 3.38319 0.000219023 0.000463167 -0.000681178
196 2 20.7075 20.9825 3.36604 8.56082e-05 -0.000148604 -0.000638714
265 1 22.3169 21.8947 1.19438 0.000192001 -0.000262439 -0.000189752
181 1 14.6942 16.5046 1.19435 0.000192097 -0.000262871 -0.000190146
253 1 22.3169 16.5047 1.19438 0.000192001 -0.00026244 -0.000189752
136 2 13.0848 26.3724 3.36602 8.39745e-05 -0.000149636 -0.000638542
205 1 14.6942 27.2846 1.19435 0.000192097 -0.000262871 -0.000190146
206 2 17.3577 28.1351 1.18692 -0.000102966 0.000125591 -0.000313246
207 1 18.9775 28.9597 3.38319 0.000219023 0.000463167 -0.000681179
208 2 20.7075 26.3725 3.36604 8.56085e-05 -0.000148603 -0.000638715
277 1 22.3169 27.2847 1.19438 0.000192001 -0.00026244 -0.000189752
139 1 11.7268 26.2891 14.1494 -0.000384286 3.72047e-05 5.52237e-05
116 2 12.6941 18.2113 14.1324 -2.60554e-05 -0.000414582 -0.000290974
125 1 15.5392 20.8972 4.9082 -0.000349024 2.01344e-05 -2.08501e-05
128 2 12.6941 23.6013 14.1324 -2.6055e-05 -0.000414581 -0.000290974
216 2 21.1667 28.1394 17.8696 -0.000101538 0.000115099 0.00028414
186 2 16.5063 18.2117 4.92007 -0.00010425 -0.000413768 0.000383872
127 1 11.7268 20.8991 14.1494 -0.000384287 3.72041e-05 5.52234e-05
188 2 20.3168 18.2113 14.1324 -2.74482e-05 -0.00041389 -0.000292112
215 1 18.506 27.2804 17.8627 0.000219393 -0.000276168 0.000158895
198 2 16.5063 23.6017 4.92007 -0.00010425 -0.000413767 0.000383873
199 1 19.3495 20.8991 14.1494 -0.000384369 3.70766e-05 5.55918e-05
200 2 20.3168 23.6013 14.1324 -2.74463e-05 -0.000413889 -0.000292111
212 2 20.3168 28.9913 14.1324 -2.74469e-05 -0.000413889 -0.000292111
211 1 19.3495 26.2891 14.1494 -0.000384369 3.70763e-05 5.55917e-05
210 2 16.5063 28.9917 4.92007 -0.000104251 -0.000413767 0.000383874
137 1 15.5392 26.2872 4.9082 -0.000349023 2.01347e-05 -2.08499e-05
140 2 12.6941 28.9913 14.1324 -2.60552e-05 -0.000414583 -0.000290974
144 2 13.544 28.1392 17.8696 -0.000101216 0.000114186 0.000282814
120 2 13.544 17.3592 17.8696 -0.000101216 0.000114186 0.000282813
202 2 16.8959 20.9832 15.6919 -1.85763e-05 -0.00015229 0.000690377
132 2 13.544 22.7492 17.8696 -0.000101216 0.000114185 0.000282814
192 2 21.1667 17.3594 17.8696 -0.000101539 0.000115098 0.00028414