ITEM: TIMESTEP
0
ITEM: NUMBER OF ATOMS
432
ITEM: BOX BOUNDS pp pp pp
0.0000000000000000e+00 4.5735666607145887e+01
0.0000000000000000e+00 3.2339999999999996e+01
0.0000000000000000e+00 1.9056527752977455e+01
ITEM: ATOMS id type xu yu zu vx vy vz
1 1 0 0 0 0 0 0
2 2 1.90565 1.3475 0 0 0 0
3 1 3.81131 0 3.81131 0 0 0
4 2 5.71696 1.3475 3.81131 0 0 0
11 1 3.81131 0 19.0565 0 0 0
12 2 5.71696 1.3475 19.0565 0 0 0
13 1 0 5.39 0 0 0 0
14 2 1.90565 6.7375 0 0 0 0
15 1 3.81131 5.39 3.81131 0 0 0
16 2 5.71696 6.7375 3.81131 0 0 0
23 1 3.81131 5.39 19.0565 0 0 0
24 2 5.71696 6.7375 19.0565 0 0 0
73 1 7.62261 0 0 0 0 0
74 2 9.52826 1.3475 0 0 0 0
85 1 7.62261 5.39 0 0 0 0
86 2 9.52826 6.7375 0 0 0 0
25 1 0 10.78 0 0 0 0
26 2 1.90565 12.1275 0 0 0 0
27 1 3.81131 10.78 3.81131 0 0 0
28 2 5.71696 12.1275 3.81131 0 0 0
35 1 3.81131 10.78 19.0565 0 0 0
36 2 5.71696 12.1275 19.0565 0 0 0
97 1 7.62261 10.78 0 0 0 0
98 2 9.52826 12.1275 0 0 0 0
5 1 7.62261 0 7.62261 0 0 0
6 2 1.90565 1.3475 7.62261 0 0 0
7 1 3.81131 0 11.4339 0 0 0
8 2 5.71696 1.3475 11.4339 0 0 0
17 1 7.62261 5.39 7.62261 0 0 0
18 2 1.90565 6.7375 7.62261 0 0 0
19 1 3.81131 5.39 11.4339 0 0 0
20 2 5.71696 6.7375 11.4339 0 0 0
78 2 9.52826 1.3475 7.62261 0 0 0
90 2 9.52826 6.7375 7.62261 0 0 0
365 1 0 0 7.62261 0 0 0
377 1 0 5.39 7.62261 0 0 0
29 1 7.62261 10.78 7.62261 0 0 0
30 2 1.90565 12.1275 7.62261 0 0 0
31 1 3.81131 10.78 11.4339 0 0 0
32 2 5.71696 12.1275 11.4339 0 0 0
102 2 9.52826 12.1275 7.62261 0 0 0
389 1 0 10.78 7.62261 0 0 0
9 1 7.62261 0 15.2452 0 0 0
10 2 1.90565 1.3475 15.2452 0 0 0
21 1 7.62261 5.39 15.2452 0 0 0
22 2 1.90565 6.7375 15.2452 0 0 0
82 2 9.52826 1.3475 15.2452 0 0 0
94 2 9.52826 6.7375 15.2452 0 0 0
369 1 0 0 15.2452 0 0 0
381 1 0 5.39 15.2452 0 0 0
33 1 7.62261 10.78 15.2452 0 0 0
34 2 1.90565 12.1275 15.2452 0 0 0
106 2 9.52826 12.1275 15.2452 0 0 0
393 1 0 10.78 15.2452 0 0 0
37 1 0 16.17 0 0 0 0
38 2 1.90565 17.5175 0 0 0 0
39 1 3.81131 16.17 3.81131 0 0 0
40 2 5.71696 17.5175 3.81131 0 0 0
47 1 3.81131 16.17 19.0565 0 0 0
48 2 5.71696 17.5175 19.0565 0 0 0
49 1 0 21.56 0 0 0 0
50 2 1.90565 22.9075 0 0 0 0
51 1 3.81131 21.56 3.81131 0 0 0
52 2 5.71696 22.9075 3.81131 0 0 0
59 1 3.81131 21.56 19.0565 0 0 0
60 2 5.71696 22.9075 19.0565 0 0 0
109 1 7.62261 16.17 0 0 0 0
110 2 9.52826 17.5175 0 0 0 0
121 1 7.62261 21.56 0 0 0 0
122 2 9.52826 22.9075 0 0 0 0
61 1 0 26.95 0 0 0 0
62 2 1.90565 28.2975 0 0 0 0
63 1 3.81131 26.95 3.81131 0 0 0
64 2 5.71696 28.2975 3.81131 0 0 0
71 1 3.81131 26.95 19.0565 0 0 0
72 2 5.71696 28.2975 19.0565 0 0 0
133 1 7.62261 26.95 0 0 0 0
134 2 9.52826 28.2975 0 0 0 0
41 1 7.62261 16.17 7.62261 0 0 0
42 2 1.90565 17.5175 7.62261 0 0 0
43 1 3.81131 16.17 11.4339 0 0 0
44 2 5.71696 17.5175 11.4339 0 0 0
53 1 7.62261 21.56 7.62261 0 0 0
54 2 1.90565 22.9075 7.62261 0 0 0
55 1 3.81131 21.56 11.4339 0 0 0
56 2 5.71696 22.9075 11.4339 0 0 0
114 2 9.52826 17.5175 7.62261 0 0 0
126 2 9.52826 22.9075 7.62261 0 0 0
401 1 0 16.17 7.62261 0 0 0
413 1 0 21.56 7.62261 0 0 0
65 1 7.62261 26.95 7.62261 0 0 0
66 2 1.90565 28.2975 7.62261 0 0 0
67 1 3.81131 26.95 11.4339 0 0 0
68 2 5.71696 28.2975 11.4339 0 0 0
138 2 9.52826 28.2975 7.62261 0 0 0
425 1 0 26.95 7.62261 0 0 0
45 1 7.62261 16.17 15.2452 0 0 0
46 2 1.90565 17.5175 15.2452 0 0 0
57 1 7.62261 21.56 15.2452 0 0 0
58 2 1.90565 22.9075 15.2452 0 0 0
118 2 9.52826 17.5175 15.2452 0 0 0
130 2 9.52826 22.9075 15.2452 0 0 0
405 1 0 16.17 15.2452 0 0 0
417 1 0 21.56 15.2452 0 0 0
69 1 7.62261 26.95 15.2452 0 0 0
70 2 1.90565 28.2975 15.2452 0 0 0
142 2 9.52826 28.2975 15.2452 0 0 0
429 1 0 26.95 15.2452 0 0 0
75 1 11.4339 0 3.81131 0 0 0
76 2 13.3396 1.3475 3.81131 0 0 0
83 1 11.4339 0 19.0565 0 0 0
84 2 13.3396 1.3475 19.0565 0 0 0
87 1 11.4339 5.39 3.81131 0 0 0
88 2 13.3396 6.7375 3.81131 0 0 0
95 1 11.4339 5.39 19.0565 0 0 0
96 2 13.3396 6.7375 19.0565 0 0 0
145 1 15.2452 0 0 0 0 0
146 2 17.1509 1.3475 0 0 0 0
147 1 19.0565 0 3.81131 0 0 0
148 2 20.9622 1.3475 3.81131 0 0 0
155 1 19.0565 0 19.0565 0 0 0
156 2 20.9622 1.3475 19.0565 0 0 0
157 1 15.2452 5.39 0 0 0 0
158 2 17.1509 6.7375 0 0 0 0
159 1 19.0565 5.39 3.81131 0 0 0
160 2 20.9622 6.7375 3.81131 0 0 0
167 1 19.0565 5.39 19.0565 0 0 0
168 2 20.9622 6.7375 19.0565 0 0 0
217 1 22.8678 0 0 0 0 0
229 1 22.8678 5.39 0 0 0 0
99 1 11.4339 10.78 3.81131 0 0 0
100 2 13.3396 12.1275 3.81131 0 0 0
107 1 11.4339 10.78 19.0565 0 0 0
108 2 13.3396 12.1275 19.0565 0 0 0
169 1 15.2452 10.78 0 0 0 0
170 2 17.1509 12.1275 0 0 0 0
171 1 19.0565 10.78 3.81131 0 0 0
172 2 20.9622 12.1275 3.81131 0 0 0
179 1 19.0565 10.78 19.0565 0 0 0
180 2 20.9622 12.1275 19.0565 0 0 0
241 1 22.8678 10.78 0 0 0 0
77 1 15.2452 0 7.62261 0 0 0
79 1 11.4339 0 11.4339 0 0 0
80 2 13.3396 1.3475 11.4339 0 0 0
89 1 15.2452 5.39 7.62261 0 0 0
91 1 11.4339 5.39 11.4339 0 0 0
92 2 13.3396 6.7375 11.4339 0 0 0
149 1 22.8678 0 7.62261 0 0 0
150 2 17.1509 1.3475 7.62261 0 0 0
151 1 19.0565 0 11.4339 0 0 0
152 2 20.9622 1.3475 11.4339 0 0 0
161 1 22.8678 5.39 7.62261 0 0 0
162 2 17.1509 6.7375 7.62261 0 0 0
163 1 19.0565 5.39 11.4339 0 0 0
164 2 20.9622 6.7375 11.4339 0 0 0
101 1 15.2452 10.78 7.62261 0 0 0
103 1 11.4339 10.78 11.4339 0 0 0
104 2 13.3396 12.1275 11.4339 0 0 0
173 1 22.8678 10.78 7.62261 0 0 0
174 2 17.1509 12.1275 7.62261 0 0 0
175 1 19.0565 10.78 11.4339 0 0 0
176 2 20.9622 12.1275 11.4339 0 0 0
81 1 15.2452 0 15.2452 0 0 0
93 1 15.2452 5.39 15.2452 0 0 0
153 1 22.8678 0 15.2452 0 0 0
154 2 17.1509 1.3475 15.2452 0 0 0
165 1 22.8678 5.39 15.2452 0 0 0
166 2 17.1509 6.7375 15.2452 0 0 0
105 1 15.2452 10.78 15.2452 0 0 0
177 1 22.8678 10.78 15.2452 0 0 0
178 2 17.1509 12.1275 15.2452 0 0 0
111 1 11.4339 16.17 3.81131 0 0 0
112 2 13.3396 17.5175 3.81131 0 0 0
119 1 11.4339 16.17 19.0565 0 0 0
120 2 13.3396 17.5175 19.0565 0 0 0
123 1 11.4339 21.56 3.81131 0 0 0
124 2 13.3396 22.9075 3.81131 0 0 0
131 1 11.4339 21.56 19.0565 0 0 0
132 2 13.3396 22.9075 19.0565 0 0 0
181 1 15.2452 16.17 0 0 0 0
182 2 17.1509 17.5175 0 0 0 0
183 1 19.0565 16.17 3.81131 0 0 0
184 2 20.9622 17.5175 3.81131 0 0 0
191 1 19.0565 16.17 19.0565 0 0 0
192 2 20.9622 17.5175 19.0565 0 0 0
193 1 15.2452 21.56 0 0 0 0
194 2 17.1509 22.9075 0 0 0 0
195 1 19.0565 21.56 3.81131 0 0 0
196 2 20.9622 22.9075 3.81131 0 0 0
203 1 19.0565 21.56 19.0565 0 0 0
204 2 20.9622 22.9075 19.0565 0 0 0
253 1 22.8678 16.17 0 0 0 0
265 1 22.8678 21.56 0 0 0 0
135 1 11.4339 26.95 3.81131 0 0 0
136 2 13.3396 28.2975 3.81131 0 0 0
143 1 11.4339 26.95 19.0565 0 0 0
144 2 13.3396 28.2975 19.0565 0 0 0
205 1 15.2452 26.95 0 0 0 0
206 2 17.1509 28.2975 0 0 0 0
207 1 19.0565 26.95 3.81131 0 0 0
208 2 20.9622 28.2975 3.81131 0 0 0
215 1 19.0565 26.95 19.0565 0 0 0
216 2 20.9622 28.2975 19.0565 0 0 0
277 1 22.8678 26.95 0 0 0 0
113 1 15.2452 16.17 7.62261 0 0 0
115 1 11.4339 16.17 11.4339 0 0 0
116 2 13.3396 17.5175 11.4339 0 0 0
125 1 15.2452 21.56 7.62261 0 0 0
127 1 11.4339 21.56 11.4339 0 0 0
128 2 13.3396 22.9075 11.4339 0 0 0
185 1 22.8678 16.17 7.62261 0 0 0
186 2 17.1509 17.5175 7.62261 0 0 0
187 1 19.0565 16.17 11.4339 0 0 0
188 2 20.9622 17.5175 11.4339 0 0 0
197 1 22.8678 21.56 7.62261 0 0 0
198 2 17.1509 22.9075 7.62261 0 0 0
199 1 19.0565 21.56 11.4339 0 0 0
200 2 20.9622 22.9075 11.4339 0 0 0
137 1 15.2452 26.95 7.62261 0 0 0
139 1 11.4339 26.95 11.4339 0 0 0
140 2 13.3396 28.2975 11.4339 0 0 0
209 1 22.8678 26.95 7.62261 0 0 0
210 2 17.1509 28.2975 7.62261 0 0 0
211 1 19.0565 26.95 11.4339 0 0 0
212 2 20.9622 28.2975 11.4339 0 0 0
117 1 15.2452 16.17 15.2452 0 0 0
129 1 15.2452 21.56 15.2452 0 0 0
189 1 22.8678 16.17 15.2452 0 0 0
190 2 17.1509 17.5175 15.2452 0 0 0
201 1 22.8678 21.56 15.2452 0 0 0
202 2 17.1509 22.9075 15.2452 0 0 0
141 1 15.2452 26.95 15.2452 0 0 0
213 1 22.8678 26.95 15.2452 0 0 0
214 2 17.1509 28.2975 15.2452 0 0 0
218 2 24.7735 1.3475 0 0 0 0
219 1 26.6791 0 3.81131 0 0 0
220 2 28.5848 1.3475 3.81131 0 0 0
227 1 26.6791 0 19.0565 0 0 0
228 2 28.5848 1.3475 19.0565 0 0 0
230 2 24.7735 6.7375 0 0 0 0
231 1 26.6791 5.39 3.81131 0 0 0
232 2 28.5848 6.7375 3.81131 0 0 0
239 1 26.6791 5.39 19.0565 0 0 0
240 2 28.5848 6.7375 19.0565 0 0 0
289 1 30.4904 0 0 0 0 0
290 2 32.3961 1.3475 0 0 0 0
301 1 30.4904 5.39 0 0 0 0
302 2 32.3961 6.7375 0 0 0 0
242 2 24.7735 12.1275 0 0 0 0
243 1 26.6791 10.78 3.81131 0 0 0
244 2 28.5848 12.1275 3.81131 0 0 0
251 1 26.6791 10.78 19.0565 0 0 0
252 2 28.5848 12.1275 19.0565 0 0 0
313 1 30.4904 10.78 0 0 0 0
314 2 32.3961 12.1275 0 0 0 0
221 1 30.4904 0 7.62261 0 0 0
222 2 24.7735 1.3475 7.62261 0 0 0
223 1 26.6791 0 11.4339 0 0 0
224 2 28.5848 1.3475 11.4339 0 0 0
233 1 30.4904 5.39 7.62261 0 0 0
234 2 24.7735 6.7375 7.62261 0 0 0
235 1 26.6791 5.39 11.4339 0 0 0
236 2 28.5848 6.7375 11.4339 0 0 0
294 2 32.3961 1.3475 7.62261 0 0 0
306 2 32.3961 6.7375 7.62261 0 0 0
245 1 30.4904 10.78 7.62261 0 0 0
246 2 24.7735 12.1275 7.62261 0 0 0
247 1 26.6791 10.78 11.4339 0 0 0
248 2 28.5848 12.1275 11.4339 0 0 0
318 2 32.3961 12.1275 7.62261 0 0 0
225 1 30.4904 0 15.2452 0 0 0
226 2 24.7735 1.3475 15.2452 0 0 0
237 1 30.4904 5.39 15.2452 0 0 0
238 2 24.7735 6.7375 15.2452 0 0 0
298 2 32.3961 1.3475 15.2452 0 0 0
310 2 32.3961 6.7375 15.2452 0 0 0
249 1 30.4904 10.78 15.2452 0 0 0
250 2 24.7735 12.1275 15.2452 0 0 0
322 2 32.3961 12.1275 15.2452 0 0 0
254 2 24.7735 17.5175 0 0 0 0
255 1 26.6791 16.17 3.81131 0 0 0
256 2 28.5848 17.5175 3.81131 0 0 0
263 1 26.6791 16.17 19.0565 0 0 0
264 2 28.5848 17.5175 19.0565 0 0 0
266 2 24.7735 22.9075 0 0 0 0
267 1 26.6791 21.56 3.81131 0 0 0
268 2 28.5848 22.9075 3.81131 0 0 0
275 1 26.6791 21.56 19.0565 0 0 0
276 2 28.5848 22.9075 19.0565 0 0 0
325 1 30.4904 16.17 0 0 0 0
326 2 32.3961 17.5175 0 0 0 0
337 1 30.4904 21.56 0 0 0 0
338 2 32.3961 22.9075 0 0 0 0
278 2 24.7735 28.2975 0 0 0 0
279 1 26.6791 26.95 3.81131 0 0 0
280 2 28.5848 28.2975 3.81131 0 0 0
287 1 26.6791 26.95 19.0565 0 0 0
288 2 28.5848 28.2975 19.0565 0 0 0
349 1 30.4904 26.95 0 0 0 0
350 2 32.3961 28.2975 0 0 0 0
257 1 30.4904 16.17 7.62261 0 0 0
258 2 24.7735 17.5175 7.62261 0 0 0
259 1 26.6791 16.17 11.4339 0 0 0
260 2 28.5848 17.5175 11.4339 0 0 0
269 1 30.4904 21.56 7.62261 0 0 0
270 2 24.7735 22.9075 7.62261 0 0 0
271 1 26.6791 21.56 11.4339 0 0 0
272 2 28.5848 22.9075 11.4339 0 0 0
330 2 32.3961 17.5175 7.62261 0 0 0
342 2 32.3961 22.9075 7.62261 0 0 0
281 1 30.4904 26.95 7.62261 0 0 0
282 2 24.7735 28.2975 7.62261 0 0 0
283 1 26.6791 26.95 11.4339 0 0 0
284 2 28.5848 28.2975 11.4339 0 0 0
354 2 32.3961 28.2975 7.62261 0 0 0
261 1 30.4904 16.17 15.2452 0 0 0
262 2 24.7735 17.5175 15.2452 0 0 0
273 1 30.4904 21.56 15.2452 0 0 0
274 2 24.7735 22.9075 15.2452 0 0 0
334 2 32.3961 17.5175 15.2452 0 0 0
346 2 32.3961 22.9075 15.2452 0 0 0
285 1 30.4904 26.95 15.2452 0 0 0
286 2 24.7735 28.2975 15.2452 0 0 0
358 2 32.3961 28.2975 15.2452 0 0 0
291 1 34.3017 0 3.81131 0 0 0
292 2 36.2074 1.3475 3.81131 0 0 0
299 1 34.3017 0 19.0565 0 0 0
300 2 36.2074 1.3475 19.0565 0 0 0
303 1 34.3017 5.39 3.81131 0 0 0
304 2 36.2074 6.7375 3.81131 0 0 0
311 1 34.3017 5.39 19.0565 0 0 0
312 2 36.2074 6.7375 19.0565 0 0 0
361 1 38.1131 0 0 0 0 0
362 2 40.0187 1.3475 0 0 0 0
363 1 41.9244 0 3.81131 0 0 0
364 2 43.83 1.3475 3.81131 0 0 0
371 1 41.9244 0 19.0565 0 0 0
372 2 43.83 1.3475 19.0565 0 0 0
373 1 38.1131 5.39 0 0 0 0
374 2 40.0187 6.7375 0 0 0 0
375 1 41.9244 5.39 3.81131 0 0 0
376 2 43.83 6.7375 3.81131 0 0 0
383 1 41.9244 5.39 19.0565 0 0 0
384 2 43.83 6.7375 19.0565 0 0 0
315 1 34.3017 10.78 3.81131 0 0 0
316 2 36.2074 12.1275 3.81131 0 0 0
323 1 34.3017 10.78 19.0565 0 0 0
324 2 36.2074 12.1275 19.0565 0 0 0
385 1 38.1131 10.78 0 0 0 0
386 2 40.0187 12.1275 0 0 0 0
387 1 41.9244 10.78 3.81131 0 0 0
388 2 43.83 12.1275 3.81131 0 0 0
395 1 41.9244 10.78 19.0565 0 0 0
396 2 43.83 12.1275 19.0565 0 0 0
293 1 38.1131 0 7.62261 0 0 0
295 1 34.3017 0 11.4339 0 0 0
296 2 36.2074 1.3475 11.4339 0 0 0
305 1 38.1131 5.39 7.62261 0 0 0
307 1 34.3017 5.39 11.4339 0 0 0
308 2 36.2074 6.7375 11.4339 0 0 0
366 2 40.0187 1.3475 7.62261 0 0 0
367 1 41.9244 0 11.4339 0 0 0
368 2 43.83 1.3475 11.4339 0 0 0
378 2 40.0187 6.7375 7.62261 0 0 0
379 1 41.9244 5.39 11.4339 0 0 0
380 2 43.83 6.7375 11.4339 0 0 0
317 1 38.1131 10.78 7.62261 0 0 0
319 1 34.3017 10.78 11.4339 0 0 0
320 2 36.2074 12.1275 11.4339 0 0 0
390 2 40.0187 12.1275 7.62261 0 0 0
391 1 41.9244 10.78 11.4339 0 0 0
392 2 43.83 12.1275 11.4339 0 0 0
297 1 38.1131 0 15.2452 0 0 0
309 1 38.1131 5.39 15.2452 0 0 0
370 2 40.0187 1.3475 15.2452 0 0 0
382 2 40.0187 6.7375 15.2452 0 0 0
321 1 38.1131 10.78 15.2452 0 0 0
394 2 40.0187 12.1275 15.2452 0 0 0
327 1 34.3017 16.17 3.81131 0 0 0
328 2 36.2074 17.5175 3.81131 0 0 0
335 1 34.3017 16.17 19.0565 0 0 0
336 2 36.2074 17.5175 19.0565 0 0 0
339 1 34.3017 21.56 3.81131 0 0 0
340 2 36.2074 22.9075 3.81131 0 0 0
347 1 34.3017 21.56 19.0565 0 0 0
348 2 36.2074 22.9075 19.0565 0 0 0
397 1 38.1131 16.17 0 0 0 0
398 2 40.0187 17.5175 0 0 0 0
399 1 41.9244 16.17 3.81131 0 0 0
400 2 43.83 17.5175 3.81131 0 0 0
407 1 41.9244 16.17 19.0565 0 0 0
408 2 43.83 17.5175 19.0565 0 0 0
409 1 38.1131 21.56 0 0 0 0
410 2 40.0187 22.9075 0 0 0 0
411 1 41.9244 21.56 3.81131 0 0 0
412 2 43.83 22.9075 3.81131 0 0 0
419 1 41.9244 21.56 19.0565 0 0 0
420 2 43.83 22.9075 19.0565 0 0 0
351 1 34.3017 26.95 3.81131 0 0 0
352 2 36.2074 28.2975 3.81131 0 0 0
359 1 34.3017 26.95 19.0565 0 0 0
360 2 36.2074 28.2975 19.0565 0 0 0
421 1 38.1131 26.95 0 0 0 0
422 2 40.0187 28.2975 0 0 0 0
423 1 41.9244 26.95 3.81131 0 0 0
424 2 43.83 28.2975 3.81131 0 0 0
431 1 41.9244 26.95 19.0565 0 0 0
432 2 43.83 28.2975 19.0565 0 0 0
329 1 38.1131 16.17 7.62261 0 0 0
331 1 34.3017 16.17 11.4339 0 0 0
332 2 36.2074 17.5175 11.4339 0 0 0
341 1 38.1131 21.56 7.62261 0 0 0
343 1 34.3017 21.56 11.4339 0 0 0
344 2 36.2074 22.9075 11.4339 0 0 0
402 2 40.0187 17.5175 7.62261 0 0 0
403 1 41.9244 16.17 11.4339 0 0 0
404 2 43.83 17.5175 11.4339 0 0 0
414 2 40.0187 22.9075 7.62261 0 0 0
415 1 41.9244 21.56 11.4339 0 0 0
416 2 43.83 22.9075 11.4339 0 0 0
353 1 38.1131 26.95 7.62261 0 0 0
355 1 34.3017 26.95 11.4339 0 0 0
356 2 36.2074 28.2975 11.4339 0 0 0
426 2 40.0187 28.2975 7.62261 0 0 0
427 1 41.9244 26.95 11.4339 0 0 0
428 2 43.83 28.2975 11.4339 0 0 0
333 1 38.1131 16.17 15.2452 0 0 0
345 1 38.1131 21.56 15.2452 0 0 0
406 2 40.0187 17.5175 15.2452 0 0 0
418 2 40.0187 22.9075 15.2452 0 0 0
357 1 38.1131 26.95 15.2452 0 0 0
430 2 40.0187 28.2975 15.2452 0 0 0
ITEM: TIMESTEP
25
ITEM: NUMBER OF ATOMS
432
ITEM: BOX BOUNDS pp pp pp
0.0000000000000000e+00 4.5735666607145887e+01
0.0000000000000000e+00 3.2339999999999996e+01
0.0000000000000000e+00 1.9056527752977455e+01
ITEM: ATOMS id type xu yu zu vx vy vz
106 2 10.028 11.5431 14.5037 0 0 0
2 2 2.30467 1.07455 1.26086 0 0 0
3 1 3.3131 0.583274 4.55158 0 0 0
4 2 6.21676 0.763368 4.5518 0 0 0
103 1 10.959 11.2587 11.9349 0 0 0
12 2 6.11612 1.07646 17.7963 0 0 0
34 2 2.4054 11.5431 14.5037 0 0 0
14 2 2.30467 6.46455 1.26086 0 0 0
15 1 3.3131 5.97327 4.55158 0 0 0
16 2 6.21676 6.15337 4.5518 0 0 0
23 1 3.41048 5.6622 17.7924 0 0 0
24 2 6.11612 6.46646 17.7963 0 0 0
91 1 10.959 5.86866 11.9349 0 0 0
74 2 9.92727 1.07455 1.26086 0 0 0
85 1 7.22063 5.66337 1.26471 0 0 0
86 2 9.92727 6.46455 1.26086 0 0 0
33 1 7.12364 11.3636 14.5049 0 0 0
26 2 2.30467 11.8545 1.26086 0 0 0
27 1 3.3131 11.3633 4.55158 0 0 0
28 2 6.21676 11.5434 4.5518 0 0 0
35 1 3.41048 11.0522 17.7924 0 0 0
36 2 6.11612 11.8565 17.7963 0 0 0
97 1 7.22063 11.0534 1.26471 0 0 0
98 2 9.92727 11.8546 1.26086 0 0 0
5 1 7.14708 0.479392 7.12205 0 0 0
6 2 2.38169 0.868093 7.11941 0 0 0
7 1 3.33638 0.478653 11.9349 0 0 0
8 2 6.19364 0.868916 11.9366 0 0 0
17 1 7.14708 5.86939 7.12205 0 0 0
18 2 2.38169 6.25809 7.11941 0 0 0
19 1 3.33638 5.86865 11.9349 0 0 0
20 2 6.19364 6.25892 11.9366 0 0 0
78 2 10.0043 0.868098 7.11941 0 0 0
90 2 10.0043 6.2581 7.11941 0 0 0
94 2 10.028 6.15309 14.5037 0 0 0
82 2 10.028 0.763091 14.5037 0 0 0
29 1 7.14708 11.2594 7.12205 0 0 0
30 2 2.38169 11.6481 7.11941 0 0 0
31 1 3.33638 11.2587 11.9349 0 0 0
32 2 6.19364 11.6489 11.9366 0 0 0
102 2 10.0043 11.6481 7.11941 0 0 0
22 2 2.4054 6.15309 14.5037 0 0 0
9 1 7.12364 0.583627 14.5049 0 0 0
10 2 2.4054 0.763087 14.5037 0 0 0
21 1 7.12364 5.97363 14.5049 0 0 0
75 1 10.9358 0.583282 4.55158 0 0 0
79 1 10.959 0.478661 11.9349 0 0 0
87 1 10.9358 5.97328 4.55158 0 0 0
95 1 11.0331 5.66221 17.7924 0 0 0
99 1 10.9358 11.3633 4.55158 0 0 0
107 1 11.0331 11.0522 17.7924 0 0 0
47 1 3.41048 16.4422 17.7924 0 0 0
109 1 7.22063 16.4434 1.26471 0 0 0
119 1 11.0331 16.4422 17.7924 0 0 0
142 2 10.028 27.7131 14.5037 0 0 0
38 2 2.30467 17.2445 1.26086 0 0 0
39 1 3.3131 16.7533 4.55158 0 0 0
40 2 6.21676 16.9334 4.5518 0 0 0
139 1 10.959 27.4287 11.9349 0 0 0
48 2 6.11612 17.2465 17.7963 0 0 0
70 2 2.4054 27.7131 14.5037 0 0 0
50 2 2.30467 22.6345 1.26086 0 0 0
51 1 3.3131 22.1433 4.55158 0 0 0
52 2 6.21676 22.3234 4.5518 0 0 0
59 1 3.41048 21.8322 17.7924 0 0 0
60 2 6.11612 22.6365 17.7963 0 0 0
127 1 10.959 22.0387 11.9349 0 0 0
110 2 9.92727 17.2446 1.26086 0 0 0
121 1 7.22063 21.8334 1.26471 0 0 0
122 2 9.92727 22.6346 1.26086 0 0 0
69 1 7.12364 27.5336 14.5049 0 0 0
62 2 2.30467 28.0245 1.26086 0 0 0
63 1 3.3131 27.5333 4.55158 0 0 0
64 2 6.21676 27.7134 4.5518 0 0 0
71 1 3.41048 27.2222 17.7924 0 0 0
72 2 6.11612 28.0265 17.7963 0 0 0
133 1 7.22063 27.2234 1.26471 0 0 0
134 2 9.92727 28.0246 1.26086 0 0 0
41 1 7.14708 16.6494 7.12205 0 0 0
42 2 2.38169 17.0381 7.11941 0 0 0
43 1 3.33638 16.6487 11.9349 0 0 0
44 2 6.19364 17.0389 11.9366 0 0 0
53 1 7.14708 22.0394 7.12205 0 0 0
54 2 2.38169 22.4281 7.11941 0 0 0
55 1 3.33638 22.0387 11.9349 0 0 0
56 2 6.19364 22.4289 11.9366 0 0 0
114 2 10.0043 17.0381 7.11941 0 0 0
126 2 10.0043 22.4281 7.11941 0 0 0
130 2 10.028 22.3231 14.5037 0 0 0
118 2 10.028 16.9331 14.5037 0 0 0
65 1 7.14708 27.4294 7.12205 0 0 0
66 2 2.38169 27.8181 7.11941 0 0 0
67 1 3.33638 27.4287 11.9349 0 0 0
68 2 6.19364 27.8189 11.9366 0 0 0
138 2 10.0043 27.8181 7.11941 0 0 0
58 2 2.4054 22.3231 14.5037 0 0 0
45 1 7.12364 16.7536 14.5049 0 0 0
46 2 2.4054 16.9331 14.5037 0 0 0
57 1 7.12364 22.1436 14.5049 0 0 0
111 1 10.9358 16.7533 4.55158 0 0 0
115 1 10.959 16.6487 11.9349 0 0 0
123 1 10.9358 22.1433 4.55158 0 0 0
131 1 11.0331 21.8322 17.7924 0 0 0
135 1 10.9358 27.5333 4.55158 0 0 0
143 1 11.0331 27.2222 17.7924 0 0 0
11 1 3.41048 0.272205 17.7924 0 0 0
73 1 7.22063 0.273372 1.26471 0 0 0
83 1 11.0331 0.272214 17.7924 0 0 0
178 2 17.6504 11.5431 14.5038 0 0 0
76 2 13.8393 0.763363 4.55176 0 0 0
177 1 22.3693 11.3637 14.505 0 0 0
84 2 13.7387 1.07646 17.7963 0 0 0
105 1 14.7464 11.3636 14.5049 0 0 0
88 2 13.8393 6.15336 4.55176 0 0 0
166 2 17.6504 6.15309 14.5038 0 0 0
96 2 13.7387 6.46646 17.7963 0 0 0
176 2 21.4385 11.6489 11.9365 0 0 0
146 2 17.5498 1.07454 1.26089 0 0 0
147 1 18.5586 0.583296 4.55153 0 0 0
148 2 21.4616 0.763358 4.55169 0 0 0
175 1 18.5819 11.2587 11.9348 0 0 0
156 2 21.3611 1.07644 17.7962 0 0 0
157 1 14.8434 5.66339 1.26473 0 0 0
158 2 17.5498 6.46454 1.26089 0 0 0
159 1 18.5586 5.9733 4.55153 0 0 0
160 2 21.4616 6.15336 4.55169 0 0 0
167 1 18.6559 5.66225 17.7924 0 0 0
168 2 21.3611 6.46644 17.7962 0 0 0
174 2 17.6267 11.6481 7.11946 0 0 0
229 1 22.4662 5.66343 1.26477 0 0 0
165 1 22.3693 5.97366 14.505 0 0 0
100 2 13.8393 11.5434 4.55176 0 0 0
154 2 17.6504 0.763088 14.5038 0 0 0
108 2 13.7387 11.8565 17.7963 0 0 0
169 1 14.8434 11.0534 1.26473 0 0 0
170 2 17.5498 11.8545 1.26089 0 0 0
171 1 18.5586 11.3633 4.55153 0 0 0
172 2 21.4616 11.5434 4.55169 0 0 0
179 1 18.6559 11.0522 17.7924 0 0 0
180 2 21.3611 11.8564 17.7962 0 0 0
241 1 22.4662 11.0534 1.26477 0 0 0
77 1 14.7698 0.479406 7.12209 0 0 0
153 1 22.3693 0.583664 14.505 0 0 0
80 2 13.8162 0.868913 11.9366 0 0 0
89 1 14.7698 5.86941 7.12209 0 0 0
93 1 14.7464 5.97363 14.5049 0 0 0
92 2 13.8162 6.25891 11.9366 0 0 0
149 1 22.3927 0.479438 7.12215 0 0 0
150 2 17.6267 0.86809 7.11946 0 0 0
151 1 18.5819 0.478684 11.9348 0 0 0
152 2 21.4385 0.868901 11.9365 0 0 0
161 1 22.3927 5.86944 7.12215 0 0 0
162 2 17.6267 6.25809 7.11946 0 0 0
163 1 18.5819 5.86868 11.9348 0 0 0
164 2 21.4385 6.2589 11.9365 0 0 0
101 1 14.7698 11.2594 7.12209 0 0 0
81 1 14.7464 0.583634 14.5049 0 0 0
104 2 13.8162 11.6489 11.9366 0 0 0
173 1 22.3927 11.2594 7.12215 0 0 0
181 1 14.8434 16.4434 1.26473 0 0 0
191 1 18.6559 16.4422 17.7924 0 0 0
253 1 22.4662 16.4434 1.26477 0 0 0
214 2 17.6504 27.7131 14.5038 0 0 0
112 2 13.8393 16.9334 4.55176 0 0 0
213 1 22.3693 27.5337 14.505 0 0 0
120 2 13.7387 17.2465 17.7963 0 0 0
141 1 14.7464 27.5336 14.5049 0 0 0
124 2 13.8393 22.3234 4.55176 0 0 0
202 2 17.6504 22.3231 14.5038 0 0 0
132 2 13.7387 22.6365 17.7963 0 0 0
212 2 21.4385 27.8189 11.9365 0 0 0
182 2 17.5498 17.2445 1.26089 0 0 0
183 1 18.5586 16.7533 4.55153 0 0 0
184 2 21.4616 16.9334 4.55169 0 0 0
211 1 18.5819 27.4287 11.9348 0 0 0
192 2 21.3611 17.2464 17.7962 0 0 0
193 1 14.8434 21.8334 1.26473 0 0 0
194 2 17.5498 22.6345 1.26089 0 0 0
195 1 18.5586 22.1433 4.55153 0 0 0
196 2 21.4616 22.3234 4.55169 0 0 0
203 1 18.6559 21.8322 17.7924 0 0 0
204 2 21.3611 22.6364 17.7962 0 0 0
210 2 17.6267 27.8181 7.11946 0 0 0
265 1 22.4662 21.8334 1.26477 0 0 0
201 1 22.3693 22.1437 14.505 0 0 0
136 2 13.8393 27.7134 4.55176 0 0 0
190 2 17.6504 16.9331 14.5038 0 0 0
144 2 13.7387 28.0265 17.7963 0 0 0
205 1 14.8434 27.2234 1.26473 0 0 0
206 2 17.5498 28.0245 1.26089 0 0 0
207 1 18.5586 27.5333 4.55153 0 0 0
208 2 21.4616 27.7134 4.55169 0 0 0
215 1 18.6559 27.2222 17.7924 0 0 0
216 2 21.3611 28.0264 17.7962 0 0 0
277 1 22.4662 27.2234 1.26477 0 0 0
113 1 14.7698 16.6494 7.12209 0 0 0
189 1 22.3693 16.7537 14.505 0 0 0
116 2 13.8162 17.0389 11.9366 0 0 0
125 1 14.7698 22.0394 7.12209 0 0 0
129 1 14.7464 22.1436 14.5049 0 0 0
128 2 13.8162 22.4289 11.9366 0 0 0
185 1 22.3927 16.6494 7.12215 0 0 0
186 2 17.6267 17.0381 7.11946 0 0 0
187 1 18.5819 16.6487 11.9348 0 0 0
188 2 21.4385 17.0389 11.9365 0 0 0
197 1 22.3927 22.0394 7.12215 0 0 0
198 2 17.6267 22.4281 7.11946 0 0 0
199 1 18.5819 22.0387 11.9348 0 0 0
200 2 21.4385 22.4289 11.9365 0 0 0
137 1 14.7698 27.4294 7.12209 0 0 0
117 1 14.7464 16.7536 14.5049 0 0 0
140 2 13.8162 27.8189 11.9366 0 0 0
209 1 22.3927 27.4294 7.12215 0 0 0
145 1 14.8434 0.273393 1.26473 0 0 0
155 1 18.6559 0.272245 17.7924 0 0 0
217 1 22.4662 0.273427 1.26477 0 0 0
218 2 25.1721 1.07451 1.26093 0 0 0
219 1 26.1815 0.583296 4.55144 0 0 0
220 2 29.084 0.763345 4.55166 0 0 0
319 1 33.8272 11.2587 11.9348 0 0 0
228 2 28.9835 1.0764 17.7962 0 0 0
230 2 25.1721 6.46451 1.26093 0 0 0
231 1 26.1815 5.9733 4.55144 0 0 0
232 2 29.084 6.15334 4.55166 0 0 0
239 1 26.2788 5.66226 17.7923 0 0 0
240 2 28.9835 6.4664 17.7962 0 0 0
307 1 33.8272 5.86867 11.9348 0 0 0
290 2 32.7947 1.0745 1.26093 0 0 0
301 1 30.0889 5.66342 1.26477 0 0 0
302 2 32.7947 6.4645 1.26093 0 0 0
242 2 25.1721 11.8545 1.26093 0 0 0
243 1 26.1815 11.3633 4.55144 0 0 0
244 2 29.084 11.5433 4.55166 0 0 0
251 1 26.2788 11.0523 17.7923 0 0 0
252 2 28.9835 11.8564 17.7962 0 0 0
313 1 30.0889 11.0534 1.26477 0 0 0
314 2 32.7947 11.8545 1.26093 0 0 0
221 1 30.0154 0.479432 7.12218 0 0 0
222 2 25.2491 0.868057 7.11954 0 0 0
223 1 26.2047 0.478693 11.9348 0 0 0
224 2 29.061 0.868877 11.9365 0 0 0
233 1 30.0154 5.86943 7.12218 0 0 0
234 2 25.2491 6.25806 7.11954 0 0 0
235 1 26.2047 5.86869 11.9348 0 0 0
236 2 29.061 6.25888 11.9365 0 0 0
294 2 32.8717 0.86805 7.11951 0 0 0
306 2 32.8717 6.25805 7.11951 0 0 0
245 1 30.0154 11.2594 7.12218 0 0 0
246 2 25.2491 11.6481 7.11954 0 0 0
247 1 26.2047 11.2587 11.9348 0 0 0
248 2 29.061 11.6489 11.9365 0 0 0
318 2 32.8717 11.6481 7.11951 0 0 0
225 1 29.992 0.583658 14.5051 0 0 0
226 2 25.2727 0.76306 14.5038 0 0 0
237 1 29.992 5.97366 14.5051 0 0 0
238 2 25.2727 6.15306 14.5038 0 0 0
298 2 32.8954 0.763053 14.5038 0 0 0
310 2 32.8954 6.15305 14.5038 0 0 0
249 1 29.992 11.3637 14.5051 0 0 0
250 2 25.2727 11.5431 14.5038 0 0 0
322 2 32.8954 11.5431 14.5038 0 0 0
291 1 33.8039 0.583285 4.55146 0 0 0
295 1 33.8272 0.478671 11.9348 0 0 0
303 1 33.8039 5.97328 4.55146 0 0 0
311 1 33.9012 5.66223 17.7923 0 0 0
315 1 33.8039 11.3633 4.55146 0 0 0
323 1 33.9012 11.0522 17.7923 0 0 0
263 1 26.2788 16.4423 17.7923 0 0 0
325 1 30.0889 16.4434 1.26477 0 0 0
335 1 33.9012 16.4422 17.7923 0 0 0
254 2 25.1721 17.2445 1.26093 0 0 0
255 1 26.1815 16.7533 4.55144 0 0 0
256 2 29.084 16.9333 4.55166 0 0 0
355 1 33.8272 27.4287 11.9348 0 0 0
264 2 28.9835 17.2464 17.7962 0 0 0
266 2 25.1721 22.6345 1.26093 0 0 0
267 1 26.1815 22.1433 4.55144 0 0 0
268 2 29.084 22.3233 4.55166 0 0 0
275 1 26.2788 21.8323 17.7923 0 0 0
276 2 28.9835 22.6364 17.7962 0 0 0
343 1 33.8272 22.0387 11.9348 0 0 0
326 2 32.7947 17.2445 1.26093 0 0 0
337 1 30.0889 21.8334 1.26477 0 0 0
338 2 32.7947 22.6345 1.26093 0 0 0
278 2 25.1721 28.0245 1.26093 0 0 0
279 1 26.1815 27.5333 4.55144 0 0 0
280 2 29.084 27.7133 4.55166 0 0 0
287 1 26.2788 27.2223 17.7923 0 0 0
288 2 28.9835 28.0264 17.7962 0 0 0
349 1 30.0889 27.2234 1.26477 0 0 0
350 2 32.7947 28.0245 1.26093 0 0 0
257 1 30.0154 16.6494 7.12218 0 0 0
258 2 25.2491 17.0381 7.11954 0 0 0
259 1 26.2047 16.6487 11.9348 0 0 0
260 2 29.061 17.0389 11.9365 0 0 0
269 1 30.0154 22.0394 7.12218 0 0 0
270 2 25.2491 22.4281 7.11954 0 0 0
271 1 26.2047 22.0387 11.9348 0 0 0
272 2 29.061 22.4289 11.9365 0 0 0
330 2 32.8717 17.0381 7.11951 0 0 0
342 2 32.8717 22.4281 7.11951 0 0 0
281 1 30.0154 27.4294 7.12218 0 0 0
282 2 25.2491 27.8181 7.11954 0 0 0
283 1 26.2047 27.4287 11.9348 0 0 0
284 2 29.061 27.8189 11.9365 0 0 0
354 2 32.8717 27.8181 7.11951 0 0 0
261 1 29.992 16.7537 14.5051 0 0 0
262 2 25.2727 16.9331 14.5038 0 0 0
273 1 29.992 22.1437 14.5051 0 0 0
274 2 25.2727 22.3231 14.5038 0 0 0
334 2 32.8954 16.9331 14.5038 0 0 0
346 2 32.8954 22.3231 14.5038 0 0 0
285 1 29.992 27.5337 14.5051 0 0 0
286 2 25.2727 27.7131 14.5038 0 0 0
358 2 32.8954 27.7131 14.5038 0 0 0
327 1 33.8039 16.7533 4.55146 0 0 0
331 1 33.8272 16.6487 11.9348 0 0 0
339 1 33.8039 22.1433 4.55146 0 0 0
347 1 33.9012 21.8322 17.7923 0 0 0
351 1 33.8039 27.5333 4.55146 0 0 0
359 1 33.9012 27.2222 17.7923 0 0 0
227 1 26.2788 0.272257 17.7923 0 0 0
289 1 30.0889 0.273417 1.26477 0 0 0
299 1 33.9012 0.272226 17.7923 0 0 0
394 2 40.5183 11.5431 14.5037 0 0 0
292 2 36.7069 0.763345 4.55175 0 0 0
321 1 37.6143 11.3636 14.505 0 0 0
300 2 36.6063 1.07641 17.7962 0 0 0
382 2 40.5183 6.15308 14.5037 0 0 0
304 2 36.7069 6.15335 4.55175 0 0 0
370 2 40.5183 0.76308 14.5037 0 0 0
312 2 36.6063 6.46641 17.7962 0 0 0
389 1 -0.47551 11.2594 7.12206 0 0 0
362 2 40.4176 1.07453 1.26089 0 0 0
363 1 41.4263 0.583276 4.55154 0 0 0
364 2 44.3297 0.763361 4.55179 0 0 0
377 1 -0.47551 5.86939 7.12206 0 0 0
372 2 44.2291 1.07644 17.7963 0 0 0
373 1 37.7112 5.66339 1.26474 0 0 0
374 2 40.4176 6.46453 1.26089 0 0 0
375 1 41.4263 5.97328 4.55154 0 0 0
376 2 44.3297 6.15336 4.55179 0 0 0
383 1 41.5236 5.6622 17.7924 0 0 0
384 2 44.2291 6.46644 17.7963 0 0 0
309 1 37.6143 5.97363 14.505 0 0 0
316 2 36.7069 11.5433 4.55175 0 0 0
297 1 37.6143 0.583631 14.505 0 0 0
324 2 36.6063 11.8564 17.7962 0 0 0
385 1 37.7112 11.0534 1.26474 0 0 0
386 2 40.4176 11.8545 1.26089 0 0 0
387 1 41.4263 11.3633 4.55154 0 0 0
388 2 44.3297 11.5434 4.55179 0 0 0
395 1 41.5236 11.0522 17.7924 0 0 0
396 2 44.2291 11.8564 17.7963 0 0 0
293 1 37.6377 0.479401 7.12211 0 0 0
392 2 44.3066 11.6489 11.9366 0 0 0
296 2 36.6838 0.868884 11.9365 0 0 0
305 1 37.6377 5.8694 7.12211 0 0 0
391 1 41.4495 11.2587 11.9349 0 0 0
308 2 36.6838 6.25888 11.9365 0 0 0
366 2 40.4946 0.868079 7.11945 0 0 0
367 1 41.4495 0.478656 11.9349 0 0 0
368 2 44.3066 0.868909 11.9366 0 0 0
378 2 40.4946 6.25808 7.11945 0 0 0
379 1 41.4495 5.86866 11.9349 0 0 0
380 2 44.3066 6.25891 11.9366 0 0 0
317 1 37.6377 11.2594 7.12211 0 0 0
390 2 40.4946 11.6481 7.11945 0 0 0
320 2 36.6838 11.6489 11.9365 0 0 0
369 1 -0.498964 0.583628 14.5049 0 0 0
393 1 -0.498964 11.3636 14.5049 0 0 0
13 1 -0.401971 5.66337 1.26471 0 0 0
25 1 -0.401971 11.0534 1.26471 0 0 0
365 1 -0.47551 0.479391 7.12206 0 0 0
381 1 -0.498964 5.97363 14.5049 0 0 0
397 1 37.7112 16.4434 1.26474 0 0 0
407 1 41.5236 16.4422 17.7924 0 0 0
37 1 -0.401971 16.4434 1.26471 0 0 0
430 2 40.5183 27.7131 14.5037 0 0 0
328 2 36.7069 16.9333 4.55175 0 0 0
357 1 37.6143 27.5336 14.505 0 0 0
336 2 36.6063 17.2464 17.7962 0 0 0
418 2 40.5183 22.3231 14.5037 0 0 0
340 2 36.7069 22.3233 4.55175 0 0 0
406 2 40.5183 16.9331 14.5037 0 0 0
348 2 36.6063 22.6364 17.7962 0 0 0
425 1 -0.47551 27.4294 7.12206 0 0 0
398 2 40.4176 17.2445 1.26089 0 0 0
399 1 41.4263 16.7533 4.55154 0 0 0
400 2 44.3297 16.9334 4.55179 0 0 0
413 1 -0.47551 22.0394 7.12206 0 0 0
408 2 44.2291 17.2464 17.7963 0 0 0
409 1 37.7112 21.8334 1.26474 0 0 0
410 2 40.4176 22.6345 1.26089 0 0 0
411 1 41.4263 22.1433 4.55154 0 0 0
412 2 44.3297 22.3234 4.55179 0 0 0
419 1 41.5236 21.8322 17.7924 0 0 0
420 2 44.2291 22.6364 17.7963 0 0 0
345 1 37.6143 22.1436 14.505 0 0 0
352 2 36.7069 27.7133 4.55175 0 0 0
333 1 37.6143 16.7536 14.505 0 0 0
360 2 36.6063 28.0264 17.7962 0 0 0
421 1 37.7112 27.2234 1.26474 0 0 0
422 2 40.4176 28.0245 1.26089 0 0 0
423 1 41.4263 27.5333 4.55154 0 0 0
424 2 44.3297 27.7134 4.55179 0 0 0
431 1 41.5236 27.2222 17.7924 0 0 0
432 2 44.2291 28.0264 17.7963 0 0 0
329 1 37.6377 16.6494 7.12211 0 0 0
428 2 44.3066 27.8189 11.9366 0 0 0
332 2 36.6838 17.0389 11.9365 0 0 0
341 1 37.6377 22.0394 7.12211 0 0 0
427 1 41.4495 27.4287 11.9349 0 0 0
344 2 36.6838 22.4289 11.9365 0 0 0
402 2 40.4946 17.0381 7.11945 0 0 0
403 1 41.4495 16.6487 11.9349 0 0 0
404 2 44.3066 17.0389 11.9366 0 0 0
414 2 40.4946 22.4281 7.11945 0 0 0
415 1 41.4495 22.0387 11.9349 0 0 0
416 2 44.3066 22.4289 11.9366 0 0 0
353 1 37.6377 27.4294 7.12211 0 0 0
426 2 40.4946 27.8181 7.11945 0 0 0
356 2 36.6838 27.8189 11.9365 0 0 0
405 1 -0.498964 16.7536 14.5049 0 0 0
429 1 -0.498964 27.5336 14.5049 0 0 0
49 1 -0.401971 21.8334 1.26471 0 0 0
61 1 -0.401971 27.2234 1.26471 0 0 0
401 1 -0.47551 16.6494 7.12206 0 0 0