ITEM: TIMESTEP
0
ITEM: NUMBER OF ATOMS
122
ITEM: BOX BOUNDS pp pp pp
0.0000000000000000e+00 6.0000000000000000e+01
0.0000000000000000e+00 6.0000000000000000e+01
0.0000000000000000e+00 6.0000000000000000e+01
ITEM: ATOMS id type xu yu zu vx vy vz
7 3 28.8798 33.6034 52.4606 -0 0 -0
8 3 29.2239 32.5846 51.542 0 0 -0
12 3 29.508 31.7786 48.6327 0 0 -0
13 3 29.6877 31.095 47.4196 -0 -0 -0
29 3 28.3483 31.4762 51.4505 -0 -0 0
30 3 27.1178 31.4586 52.1237 0 -0 -0
37 6 24.3206 32.2312 51.6802 0 -0 -0
40 6 28.5663 32.1002 48.8568 0 -0 0
41 6 28.8741 30.9132 46.8318 -0 0 -0
65 6 28.5975 30.657 50.8963 0 0 0
66 6 26.5293 30.6333 52.0098 0 -0 -0
35 6 22.2032 32.5607 52.5853 -0 -0 -0
1 1 23.3057 33.6915 54.0972 0 -0 -0
2 1 22.9577 32.3922 53.3537 0 0 0
3 1 24.2824 31.9271 52.7262 0 -0 0
4 2 25.3748 32.5709 53.5083 -0 -0 -0
5 3 26.6943 32.5498 52.9199 0 -0 -0
6 3 27.6424 33.5846 53.1305 -0 -0 -0
31 1 24.8081 33.9041 53.8465 0 0 -0
32 6 22.7262 34.5337 53.719 0 0 0
33 6 23.1128 33.5795 55.1641 -0 -0 -0
34 6 22.5871 31.6441 54.0545 -0 0 -0
36 6 24.3486 30.8405 52.7826 -0 0 -0
38 6 27.4403 34.3544 53.7684 -0 0 -0
39 6 29.5098 34.3882 52.6267 -0 0 -0
67 6 24.9427 34.6033 53.0212 0 -0 0
68 6 25.2801 34.3114 54.7406 -0 -0 -0
62 7 42.4017 23.9855 37.0373 -0 -0 -0
61 6 40.4203 25.4488 37.4928 0 -0 -0
17 1 33.113 28.7172 44.0112 -0 0 0
18 1 34.6398 28.4955 43.8854 0 0 -0
19 1 35.0206 27.7527 42.5867 0 -0 0
20 1 36.5518 27.5451 42.4915 -0 -0 0
21 1 36.9437 26.8014 41.1939 0 -0 -0
44 6 32.6001 27.7554 44.0179 0 -0 0
45 6 32.754 29.2984 43.1619 -0 0 -0
46 6 35.1436 29.4619 43.9001 -0 0 0
47 6 34.9881 27.9164 44.7407 0 0 0
48 6 34.5214 26.784 42.5688 0 -0 -0
49 6 34.6798 28.3333 41.7295 -0 0 -0
50 6 37.0482 28.5152 42.5131 -0 -0 -0
51 6 36.8904 26.9681 43.3521 -0 -0 0
52 6 36.4435 25.8332 41.1748 -0 0 -0
53 6 36.6029 27.381 40.3359 0 0 0
22 1 38.4733 26.5867 41.0885 0 0 -0
23 1 38.853 25.8409 39.7855 -0 -0 -0
24 1 40.3808 25.6165 39.6618 -0 0 -0
25 1 40.7475 24.8717 38.3577 0 0 0
26 5 42.5288 24.6207 38.2331 0 0 0
54 6 38.9732 27.5551 41.108 0 0 0
55 6 38.8137 26.0078 41.947 -0 -0 0
56 6 38.3477 24.8753 39.7695 0 0 0
57 6 38.507 26.422 38.9307 0 0 -0
58 6 40.8865 26.582 39.6765 0 0 -0
59 6 40.7271 25.0342 40.5157 0 -0 0
60 6 40.2606 23.8968 38.3343 0 0 -0
15 5 31.0386 29.7837 45.5119 0 0 0
16 1 32.8043 29.4733 45.3164 -0 0 -0
43 6 33.15 28.8775 46.1611 -0 0 0
9 3 30.4113 32.6601 50.7701 0 -0 0
10 4 31.3667 33.3301 51.2327 0 -0 -0
11 3 30.5935 32.0356 49.5091 0 0 -0
14 3 30.9677 30.6688 47.0213 0 0 -0
27 3 32.0684 30.9823 47.8541 0 -0 0
28 3 31.8857 31.666 49.0676 0 0 -0
42 6 33.3233 30.4317 45.3004 -0 -0 -0
63 6 33.0224 30.7174 47.6092 0 0 -0
64 6 32.7076 31.863 49.6386 -0 0 -0
76 1 52.3064 28.9947 3.35695 0 0 0
77 1 51.0775 29.847 2.93617 0 0 0
99 6 51.9601 28.0539 3.78464 -0 -0 -0
101 6 50.5733 29.3432 2.11146 0 0 -0
109 6 49.699 29.0959 4.43482 0 0 0
74 1 57.8822 29.498 3.10924 0 0 -0
78 1 53.2592 28.6914 2.16981 -0 0 0
79 1 56.8869 29.7592 1.94685 -0 0 -0
82 1 54.4924 27.8579 2.6071 -0 0 0
83 3 56.5491 28.5151 1.21637 -0 -0 -0
85 3 55.4609 27.6702 1.50195 0 0 0
94 6 55.9312 29.7288 5.26519 0 0 -0
95 6 57.4823 28.7329 3.77478 -0 0 -0
96 6 58.8041 29.0995 2.68589 -0 0 0
100 6 52.869 29.5313 4.12092 -0 -0 -0
103 6 52.7145 28.1422 1.4018 -0 -0 0
104 6 53.5927 29.6354 1.73882 0 0 0
107 6 54.0759 29.6307 7.06141 -0 -0 0
111 6 54.9805 28.3346 3.45712 -0 -0 0
112 6 54.1597 26.8764 2.94473 -0 0 -0
113 6 57.1625 28.2429 0.448258 -0 -0 0
116 6 55.3213 26.8657 0.890581 -0 0 -0
70 4 52.9325 29.3333 9.58689 0 0 -0
81 1 50.0321 30.0658 4.06532 -0 -0 0
84 1 50.544 30.922 5.255 -0 -0 0
87 1 49.456 31.1718 6.32304 -0 0 0
102 6 51.4171 30.8163 2.57116 0 -0 0
110 6 49.168 30.5654 3.62743 -0 -0 -0
114 6 51.3777 30.4123 5.73804 0 0 -0
115 6 50.8985 31.8839 4.88463 0 -0 -0
119 6 49.111 30.226 6.74075 -0 0 -0
120 6 48.6073 31.6988 5.88705 0 -0 0
121 6 49.8645 31.7793 7.13065 -0 0 -0
71 1 57.085 31.4796 4.68245 0 -0 0
72 1 58.2497 30.7604 3.9413 0 -0 0
73 1 56.3551 30.6116 5.74377 -0 -0 0
75 1 55.2054 31.3772 6.4518 -0 0 -0
89 6 56.3633 31.8505 3.95469 0 -0 -0
90 6 57.5044 32.3507 5.18594 -0 0 0
91 6 58.7233 31.4815 3.27512 0 -0 0
92 6 58.9968 30.4717 4.68062 0 -0 -0
93 6 57.0798 30.2806 6.48758 -0 -0 0
97 6 55.6101 32.2752 6.91857 -0 -0 0
98 6 54.4707 31.6816 5.70639 -0 -0 -0
105 6 57.3341 30.4624 1.24421 -0 0 -0
106 6 55.9751 30.2224 2.32366 0 0 -0
69 8 51.6311 31.0941 9.97148 -0 0 -0
122 7 51.1565 30.5776 10.6558 -0 0 -0
117 6 52.6374 31.632 7.53306 -0 -0 0
80 1 54.4991 30.5171 7.53394 0 0 0
86 1 53.3687 31.2916 8.26619 -0 -0 -0
88 3 52.6476 30.5169 9.2964 -0 -0 -0
108 6 55.2374 30.1939 8.26779 -0 -0 0
118 6 53.7943 32.1711 8.74921 -0 0 0
ITEM: TIMESTEP
1000
ITEM: NUMBER OF ATOMS
122
ITEM: BOX BOUNDS pp pp pp
0.0000000000000000e+00 6.0000000000000000e+01
0.0000000000000000e+00 6.0000000000000000e+01
0.0000000000000000e+00 6.0000000000000000e+01
ITEM: ATOMS id type xu yu zu vx vy vz
7 3 28.6791 33.5517 52.3626 0.000866795 -0.00192603 0.00202602
8 3 28.8809 32.7459 51.2048 0.00149982 -0.000555804 0.00118644
12 3 29.3093 31.9424 48.2049 -0.000785895 0.000112261 0.00164272
13 3 29.5852 31.1915 47.0472 -0.00254961 -0.00133635 0.0019797
29 3 27.8812 31.7672 50.955 0.00258417 -0.00113148 0.000544904
30 3 26.6961 31.6972 51.7059 0.00261835 -0.00294337 0.000539399
37 6 24.75 34.4946 53.4656 0.00626526 -0.00472228 -0.00736904
40 6 28.3515 32.2656 48.3414 -0.000673638 0.000197614 0.00222859
41 6 28.8156 30.9446 46.425 -0.00377572 -0.0020653 0.00378547
65 6 27.9948 31.0601 50.2287 0.00315267 -0.00124446 0.00074391
66 6 25.9848 31.0121 51.4511 0.00363826 -0.00372363 -0.000209944
35 6 22.7695 34.2289 54.7465 0.00724528 0.00796047 -0.00716363
1 1 23.9822 32.5873 55.5434 -0.00234523 0.00399434 -0.00148247
2 1 23.2148 33.2921 54.4114 0.00234559 0.00448911 -0.00397079
3 1 24.2714 33.5266 53.3172 0.00362842 -0.00389752 -0.00424591
4 2 25.2379 32.423 53.4784 0.000229941 -0.00640088 -0.000640016
5 3 26.4881 32.5415 52.8082 0.00139154 -0.00449315 0.00114453
6 3 27.5135 33.4494 53.1555 0.00072459 -0.00367877 0.00192595
31 1 25.1575 31.8611 54.8492 0.00174218 0.00469499 0.00440906
32 6 24.3666 33.3278 56.2449 -0.00685315 0.00316131 0.00186739
33 6 23.3411 31.8929 56.0864 -0.00498445 0.00307828 -0.00577085
34 6 22.4267 32.6408 54.0334 -0.00109725 0.00808528 -0.00299162
36 6 23.8205 33.498 52.3252 0.00385782 -0.00535124 -0.00430832
38 6 27.4032 34.0489 53.9734 -0.000236011 -0.00414584 0.00213873
39 6 29.3768 34.2407 52.6436 0.000499806 -0.00174428 0.00249188
67 6 26.0811 32.0049 55.4099 0.000627228 0.0146872 0.00368096
68 6 24.9541 30.7928 54.776 0.00789328 0.00289851 0.0135315
9 3 30.0465 32.8977 50.39 0.00151435 0.000308019 0.000708113
62 7 42.7854 24.0726 37.205 0.00213014 0.00415998 0.00149936
61 6 40.6226 25.1833 37.6889 0.00350603 0.00551764 0.00105873
17 1 33.2362 28.7885 43.8823 -0.000775296 -0.000420312 0.000276774
18 1 34.7514 28.6313 43.6096 -0.000715515 0.00121405 -0.00116259
19 1 35.051 27.5729 42.5106 -0.00124338 -0.000586695 2.73181e-05
20 1 36.579 27.4211 42.3069 -0.00150455 0.000418967 -0.00275115
21 1 37.005 26.3763 41.2456 -0.00154257 -0.00232198 -0.000361688
44 6 32.8149 27.8047 44.0893 0.00108331 -0.000376099 0.00427048
45 6 32.7561 29.1822 42.9865 -0.00261578 -0.0046021 -0.000574942
46 6 35.1562 29.5961 43.3041 -0.00239819 0.00115311 -0.00358558
60 6 40.6872 23.6297 38.5432 -0.000754043 0.00341673 -0.00224278
48 6 34.6337 26.61 42.8053 0.000252108 -0.000385101 0.00280408
49 6 34.5877 27.8774 41.5721 -0.00322015 -0.00246136 0.000394761
50 6 36.982 28.3913 42.0162 -0.00339492 0.000129523 -0.00633746
51 6 37.0293 27.1419 43.2595 0.000308592 0.00413414 -0.00251925
52 6 36.6189 25.3944 41.5194 -0.000120477 -0.00193216 0.00304289
53 6 36.5831 26.6575 40.2808 -0.00276383 -0.0051974 -0.000665705
22 1 38.5543 26.3103 41.1411 -0.00130129 -0.00051458 -0.000814038
23 1 39.0354 25.4296 39.9646 -3.69169e-05 -0.000781234 -4.63403e-05
24 1 40.5801 25.3622 39.8604 0.000211603 0.000732506 0.00105527
25 1 41.0295 24.6645 38.5568 0.00132537 0.002694 0.000393326
26 5 42.8263 24.6803 38.421 0.00124866 -0.000361684 0.00378879
54 6 38.9484 27.3164 40.9977 -0.00310375 5.74132e-05 -0.001754
55 6 38.9605 25.9159 42.0725 -0.000945764 0.00110456 -0.000283585
56 6 38.6438 24.4195 40.0844 0.000662802 -0.000965917 0.000684304
57 6 38.6335 25.8429 39.0395 -0.000463036 -0.00136962 -0.00012403
58 6 40.9879 26.373 39.8733 -0.000893129 0.00115651 0.00275209
59 6 40.9785 24.8199 40.7179 -0.000328484 -9.1227e-05 0.000785237
47 6 35.2464 28.3311 44.5332 0.000689964 0.0035559 -0.00115481
15 5 31.1301 29.7975 45.3145 -0.00263639 0.00194671 -0.00202911
16 1 32.924 29.7159 45.0786 -0.00227571 0.00305764 -0.00280033
43 6 33.3889 29.2955 45.9704 -0.00122872 0.00589484 -0.00200858
64 6 32.433 32.1946 49.3816 0.00107539 0.0034832 -0.00417424
10 4 30.9487 33.669 50.804 0.00156656 -0.000942575 0.00167159
11 3 30.32 32.2648 49.145 0.000447813 0.000959602 -0.000104872
14 3 30.9024 30.7936 46.7407 -0.00278483 -0.000105594 -0.000391938
27 3 31.9372 31.22 47.6026 -0.0016529 0.00112228 -0.00227826
28 3 31.6518 31.9403 48.7771 0.00014194 0.00214541 -0.00240481
42 6 33.3135 30.717 44.8933 -0.00346489 0.0030017 -0.00560336
63 6 32.9149 31.0037 47.4086 -0.00166384 0.00215214 -0.00348133
76 1 52.1914 28.978 3.41668 0.000346214 3.69624e-05 3.52009e-05
77 1 50.9119 29.8208 3.15908 0.000424157 0.000342948 0.0005106
99 6 51.903 27.952 3.64519 0.000321961 1.72879e-05 -8.37495e-05
101 6 50.4631 29.4921 2.22173 0.000376199 0.000812949 0.000368743
109 6 49.572 28.6478 4.39752 0.000590557 -0.000329783 -3.11557e-05
74 1 57.9598 29.2792 3.11348 -0.00033409 -0.000555048 7.0634e-05
78 1 53.1559 28.9672 2.2002 -0.000156971 -2.7605e-05 -0.00032837
79 1 57.0222 29.8946 2.04013 -0.00040886 0.000419416 0.000705007
82 1 54.4416 28.1452 2.47303 -0.000192414 -0.000212953 -0.000904948
83 3 56.5001 28.8726 1.10462 -0.000420287 0.00140153 -0.000285446
85 3 55.3343 28.1081 1.29069 -0.000172484 0.000964999 -0.000922428
94 6 56.0117 29.7399 5.19874 -0.000145491 -0.000106155 -0.000165162
95 6 57.4213 28.5227 3.68421 -0.000471162 -0.000738271 -0.000301578
96 6 58.7777 28.7697 2.60407 -0.000581124 -0.000509258 -0.000371813
100 6 52.7199 29.3834 4.27946 0.000735183 0.000101137 -0.000233234
103 6 52.6373 28.5438 1.34 -0.000540913 -0.000102067 -6.02639e-05
104 6 53.4345 29.9929 1.95886 -0.000160653 -3.1432e-05 -0.000348886
107 6 53.9946 29.9511 6.73929 -0.00014477 0.000241492 0.00031145
111 6 54.9552 28.559 3.34087 -0.000270795 -0.00112809 -0.000422272
112 6 54.1708 27.1193 2.72279 -0.00015913 -0.000414533 -0.00169685
113 6 57.0384 28.6997 0.255663 -0.000540534 0.00241666 -0.000568389
116 6 55.0769 27.4677 0.539671 3.64349e-05 0.0013169 -0.0012941
70 4 52.4971 29.6765 9.12763 -0.00065873 0.000879157 -0.000731056
81 1 49.8281 29.6991 4.26598 0.000432439 -0.000237822 0.000395979
119 6 48.8413 29.1555 6.85866 0.000891853 -0.0022727 -1.71683e-05
114 6 51.107 29.7863 6.02753 0.000679839 -0.00135633 0.000125593
92 6 59.2166 29.7638 4.80107 -0.000604171 -0.00247906 0.000716066
93 6 57.1651 29.8208 6.53366 -0.0009262 -0.000462967 0.000621649
118 6 54.162 32.2382 8.76738 -0.000379116 0.00106438 -0.00070644
84 1 50.2323 30.3063 5.63681 0.000595193 -0.00104364 0.000731198
87 1 49.1025 30.1995 6.68575 0.00076241 -0.00210329 0.000810109
102 6 51.1876 30.8687 3.04075 0.000600171 0.000361742 0.00108721
110 6 48.9333 30.2125 3.91416 0.000451265 2.35814e-05 0.000729582
86 1 53.5898 31.5663 8.12765 -0.000274954 0.000782132 -0.000503163
115 6 50.4908 31.3571 5.50613 0.000406334 -0.000916498 0.00137992
88 3 52.5653 30.9157 8.9683 -0.000275185 0.000904441 -0.000361457
120 6 48.2162 30.7366 6.34801 0.000606547 -0.002027 0.00134045
121 6 49.4339 30.6349 7.62851 0.000723908 -0.00282497 0.00115689
71 1 57.6005 31.1957 4.90992 0.000872332 -0.00103129 0.000723414
72 1 58.5866 30.3081 4.09763 0.000204109 -0.00156145 0.000702201
73 1 56.6049 30.417 5.81338 -0.000157261 -0.000351178 0.000116112
75 1 55.6343 31.3626 6.57013 -0.000211025 0.000168818 -0.000579575
89 6 57.0458 31.8335 4.22177 0.00162086 -0.000456182 0.000653007
90 6 58.1943 31.8533 5.54489 0.00117887 -0.00153348 0.000956913
91 6 59.2407 30.968 3.5277 0.00111322 -0.00205196 0.00117782
80 1 54.5672 30.6007 7.40134 -0.000160623 0.000628802 -5.48579e-05
108 6 55.0724 29.9777 8.1395 -5.45142e-05 0.00109378 0.000264925
97 6 56.2136 32.0028 7.23549 -0.000241107 0.000620886 -0.000988394
98 6 55.1244 31.9991 5.84692 -0.000321535 -0.000639091 -0.0012126
105 6 57.5784 30.6358 1.46619 -0.000612368 0.00115797 0.00146152
106 6 56.1882 30.4152 2.51074 -0.000458395 -0.000216332 0.0013205
69 8 51.6501 31.6762 9.60618 -0.000194824 0.000861016 -0.000168247
122 7 50.9711 31.2427 10.1643 -0.000350424 0.000832195 -0.000379934
117 6 53.0709 32.168 7.38145 -0.000269759 0.000468785 -0.000759472
ITEM: TIMESTEP
2000
ITEM: NUMBER OF ATOMS
122
ITEM: BOX BOUNDS pp pp pp
0.0000000000000000e+00 6.0000000000000000e+01
0.0000000000000000e+00 6.0000000000000000e+01
0.0000000000000000e+00 6.0000000000000000e+01
ITEM: ATOMS id type xu yu zu vx vy vz
33 6 26.479 29.1693 56.0052 -0.00114051 -0.00062801 0.00411809
34 6 24.6317 29.6735 54.7136 0.00566219 -0.00485986 -0.007009
7 3 28.539 33.7127 51.6508 0.000476565 0.000295476 0.00227421
8 3 28.7397 32.9719 50.4387 0.00191455 0.00246759 0.000775273
12 3 28.781 32.0747 47.3177 -0.000465442 -0.000573455 -0.00260433
13 3 29.0776 31.5472 46.0366 -0.00430544 0.00136336 -0.0045497
29 3 28.2622 31.6424 50.4387 0.00530496 0.00132584 -0.00117526
30 3 27.5943 31.0994 51.5403 0.0038059 -0.00021361 -0.00285341
40 6 27.8626 31.8637 47.708 0.000908441 -0.00262743 -0.000481935
68 6 28.3102 30.1561 54.9318 0.00144093 -0.00487528 0.0024597
65 6 28.4247 31.0077 49.657 0.00764045 0.00194046 -0.00118887
9 3 29.4608 33.489 49.3213 0.000642536 0.0024242 -0.000379833
36 6 24.7887 31.4727 53.1981 0.00495588 0.000979006 -0.0023367
66 6 27.2316 30.1484 51.4749 0.00229222 0.000547761 -0.00553251
37 6 25.4192 32.59 54.4378 0.0059028 -0.00362526 0.000720591
35 6 24.2882 31.0106 55.831 -0.00280688 -0.00675632 -0.00686962
1 1 26.355 30.2487 55.9179 -0.00027258 -0.000918149 -0.000695636
2 1 25.0379 30.5764 55.1696 0.00101651 -0.00416983 -0.00423389
3 1 25.4383 31.5646 54.0686 0.00427093 -0.00288587 -0.00141729
4 2 26.8067 31.1231 53.7792 0.0035982 -0.00595681 -0.00204389
5 3 27.4553 31.8188 52.7374 0.00493942 -0.00369899 -0.000332756
6 3 27.9321 33.1444 52.7942 0.00450629 -0.00363406 0.00265427
31 1 27.4875 30.859 55.063 0.00165743 -0.00411985 -0.000229748
32 6 26.3547 30.6848 56.9169 -0.00283545 0.00356813 -0.00265453
11 3 29.6866 32.9245 48.0179 -0.00104634 0.00135525 -0.00168715
38 6 27.8356 33.687 53.6525 0.00548127 -0.00567149 0.0040527
39 6 28.8556 34.6796 51.7238 -0.00226339 0.00111686 0.00327838
67 6 27.8588 31.7806 55.5112 0.00229312 -0.00376513 -0.00148572
41 6 28.4008 30.9358 45.58 -0.00539218 0.00284903 -0.0049282
62 7 42.3994 23.4415 38.8722 0.00100335 -0.0031554 0.00838102
17 1 33.1372 30.1287 43.9908 0.00227279 0.00398752 0.00237151
18 1 33.973 28.8281 43.9191 0.00461122 0.00507253 0.00556754
19 1 35.4783 29.0466 43.6059 0.00404979 0.00299289 0.00156982
20 1 36.1666 27.6696 43.3815 0.00216654 0.00179238 0.00384563
21 1 37.6185 27.7127 42.83 0.00141013 0.00143757 0.00276736
43 6 31.4034 29.1593 43.1242 0.00389182 -0.00210706 0.00604789
59 6 39.0462 24.2124 40.816 -0.00912511 0.00730018 -0.0121069
46 6 33.8759 28.2923 44.8633 0.00686833 0.00875979 0.0078921
48 6 35.5765 29.6477 42.7019 0.00241928 0.000431897 -0.000310455
49 6 35.9586 29.5763 44.4286 0.00596195 0.00560763 -0.00123004
50 6 36.1668 27.119 44.3222 0.0037336 0.00381464 0.00502877
51 6 35.5688 27.1028 42.6678 0.00141699 0.00112259 0.00500542
52 6 37.6238 28.297 41.9099 0.000365664 -4.86732e-05 0.00181759
53 6 38.2722 28.2066 43.5489 0.00196002 0.00206995 0.00183287
47 6 33.5566 28.1965 43.1344 0.00343292 0.00151202 0.00905859
16 1 31.6247 29.7974 43.9797 0.00198289 0.00241145 0.00317051
61 6 41.9489 25.1913 40.7384 -0.00510841 -0.00341885 0.00782312
60 6 40.8338 25.2437 39.3642 0.00289091 -0.00127549 0.00151878
22 1 38.1645 26.2785 42.5295 0.000913381 0.00140575 0.00411773
23 1 39.3881 26.2255 41.5672 -0.00324044 0.00180634 -0.000528823
24 1 39.8705 24.7723 41.2579 -0.00880314 0.000883378 -0.00457672
25 1 41.0812 24.7132 40.2837 -0.00325903 -0.00197147 0.00277134
26 5 41.5389 23.0177 39.8363 -0.00290576 -0.00229789 0.00526736
54 6 38.4324 25.8037 43.4734 0.00479479 0.0043644 0.00450467
55 6 37.3743 25.6811 42.0747 -2.98115e-05 -0.000158031 0.00781044
56 6 39.117 26.7087 40.6285 -0.00495875 0.00395729 0.00107459
57 6 40.2096 26.7895 42.0092 -0.000184443 -0.00172067 -0.00170838
58 6 40.1479 24.2819 42.1909 -0.016505 -0.00474368 -0.00524419
42 6 31.3294 29.2694 44.8865 0.00280328 0.00497754 0.00493131
15 5 30.6132 31.2772 43.7535 -0.00389396 -0.00216158 -0.00407045
45 6 33.3879 30.6797 44.8973 0.00152679 0.00668129 0.000940135
44 6 33.3715 30.753 43.1286 0.000880702 0.00261582 0.00100013
64 6 31.5804 33.8546 47.7451 -0.00304913 0.00522896 -0.00626247
10 4 30.0153 34.5922 49.5521 -0.00125538 0.00301821 0.00285891
63 6 32.0333 33.0298 45.562 -0.00448059 0.000940712 -0.00485593
14 3 30.2784 31.8759 45.3725 -0.00438168 0.000771966 -0.00482569
27 3 31.1665 32.753 46.0228 -0.0041295 0.00061218 -0.00439296
28 3 30.8817 33.2488 47.3146 -0.00230343 0.00285348 -0.00412876
76 1 52.1522 28.9004 3.41556 0.000114966 0.00102669 0.00019703
104 6 53.3002 29.7998 1.81087 -0.00114511 -0.00242697 -0.00246975
99 6 51.9349 27.8974 3.78277 0.00122701 0.00193457 0.003335
92 6 59.2182 30.0059 4.79438 8.14137e-05 0.00217925 -0.00106222
109 6 49.6308 28.6999 4.64578 -0.000360402 0.000813614 -0.000175108
81 1 49.8116 29.7012 4.25501 -0.000560557 0.000381985 -0.00137375
119 6 48.8982 29.8493 6.92195 0.00015348 0.0035294 -0.00116549
107 6 54.0468 29.8506 6.79929 0.000309355 -0.00090445 -0.000632462
74 1 57.987 29.373 3.13859 -0.000326987 0.00126285 -0.000190838
78 1 53.1056 28.7981 2.19407 -0.000367046 -0.00156366 0.000181874
79 1 57.0292 29.8864 2.02884 -0.000683248 0.00049116 -0.000324835
82 1 54.4566 28.1295 2.55897 0.000150455 6.76366e-05 0.00148711
83 3 56.5298 28.7874 1.17027 -0.000464324 -0.000405289 0.000543251
85 3 55.3642 28.0305 1.39135 0.000192944 -0.0011469 0.00169461
94 6 56.0262 29.7759 5.20281 -0.000630321 0.000956429 -0.00105515
95 6 57.4823 28.6165 3.73939 0.000425013 0.00100115 0.000111326
96 6 58.835 28.8833 2.65985 -0.000206276 0.0014857 -0.000205018
100 6 52.6617 29.449 4.2078 5.09858e-05 0.00375991 -0.00165471
103 6 52.6183 28.2211 1.40821 -0.000157816 -0.00393688 0.00179476
70 4 52.5906 29.4667 9.12304 0.00130848 -0.00113315 0.00258812
101 6 50.3342 29.072 2.26122 -0.000191828 -0.00325573 -3.65077e-05
111 6 54.9224 28.6849 3.37299 -0.000267678 0.00144665 0.000785709
112 6 54.2728 27.1197 2.92595 0.00063971 0.000418341 0.00269696
113 6 57.0837 28.5552 0.345855 -0.000629449 -0.000864507 0.000561678
116 6 55.125 27.3368 0.682879 0.000505578 -0.0020329 0.00245658
77 1 50.817 29.6161 3.07297 -0.000565679 -0.00112111 -0.00124509
87 1 49.1688 30.8136 6.49179 7.97589e-05 0.00297822 -0.00244745
84 1 50.2607 30.6346 5.41342 -8.19317e-05 0.00144516 -0.00241878
102 6 51.0265 30.6229 2.7115 -0.00172384 -0.00161797 -0.00330023
110 6 48.8668 30.0739 3.85921 -0.00062734 -0.000216517 -0.00177782
115 6 50.5164 31.6154 5.01251 0.000451924 0.00087151 -0.00348177
120 6 48.2791 31.2731 6.06134 -9.25525e-06 0.00220325 -0.00309076
71 1 57.512 31.3286 4.86584 -0.000564339 0.000955091 -0.000142204
72 1 58.5496 30.4803 4.07604 -0.000515701 0.00173093 -0.000802466
73 1 56.5743 30.5093 5.79431 -0.000163161 0.000137926 -0.000473233
75 1 55.5411 31.3986 6.53443 0.000187603 -0.000549182 0.000787535
89 6 56.9131 31.9059 4.16151 -0.000800231 0.00129858 0.00033998
90 6 58.0626 32.0437 5.47717 -0.000633495 0.000849859 4.31555e-05
91 6 59.1553 31.1599 3.4766 -0.00121751 0.00213967 -0.00104823
80 1 54.5782 30.5684 7.42425 0.000214192 -0.00139956 1.71009e-05
97 6 56.0721 32.1202 7.15519 0.00064896 -0.00173965 0.00177676
98 6 54.9545 31.9494 5.79915 0.000310875 0.000813926 0.00171025
105 6 57.5645 30.5983 1.40063 -0.000897482 2.9396e-05 -0.00103073
106 6 56.1842 30.4204 2.4637 -0.000742588 0.000577844 -0.000546571
117 6 52.9445 32.0014 7.43967 -0.000514637 -0.00200078 0.000463845
88 3 52.6164 30.7159 9.05115 0.000864332 -0.00120204 0.00124416
69 8 51.7539 31.4012 9.831 0.000735717 -0.000569724 0.000489999
122 7 51.1439 30.908 10.4183 0.00113781 -0.00014976 0.00126044
118 6 54.0772 32.1782 8.7824 0.000125082 -0.0010414 -0.000368796
86 1 53.5421 31.4538 8.16842 0.000171905 -0.00157546 0.000220504
121 6 49.5408 31.4571 7.28901 -2.5314e-06 0.00411528 -0.00332697
108 6 55.1636 30.0145 8.15812 0.00018587 -0.00178434 -0.000250751
114 6 51.1475 30.2216 5.8942 -0.000411344 0.0012749 -0.0019574
93 6 57.1782 29.9713 6.52507 -3.64887e-05 -0.000772808 -0.00124827
ITEM: TIMESTEP
3000
ITEM: NUMBER OF ATOMS
122
ITEM: BOX BOUNDS pp pp pp
0.0000000000000000e+00 6.0000000000000000e+01
0.0000000000000000e+00 6.0000000000000000e+01
0.0000000000000000e+00 6.0000000000000000e+01
ITEM: ATOMS id type xu yu zu vx vy vz
4 2 29.6304 28.8563 51.9463 -0.000327613 -0.00255128 -0.00340878
34 6 28.7296 26.5854 53.9622 0.00719145 -0.00430462 -0.00458492
30 3 29.8752 29.7867 49.6847 0.00202627 -0.000210941 -0.00225757
36 6 27.7235 28.0902 52.4661 0.00318775 -0.00118002 -0.00111607
2 1 29.2339 27.5518 53.9566 0.00661102 -0.00399858 -0.00403069
3 1 28.5825 28.5445 52.9598 0.00281287 -0.00126574 -0.000384871
37 6 28.2498 29.4344 53.4942 0.00377818 -0.00161624 0.000799628
35 6 29.2323 27.9547 54.9694 0.00775315 -0.00552999 -0.00341933
5 3 29.5607 29.9596 51.0524 0.001244 -0.00168738 -0.00202011
41 6 28.3691 32.0789 44.5172 -0.00422906 0.0083575 0.00117364
14 3 29.7304 33.6931 44.3349 0.0009313 0.00479835 0.000604237
7 3 29.4414 32.3615 50.6664 0.00342559 -0.00171486 -0.00226733
8 3 29.8177 32.2141 49.3105 0.00100664 -0.000585061 -0.00343982
12 3 29.0746 32.6054 46.4266 0.00387167 0.00368946 -0.00166772
39 6 29.268 33.2851 51.0629 0.00311131 -0.002234 -0.00119514
29 3 30.0126 30.8964 48.8267 0.00497642 -0.000392482 -0.00254128
38 6 29.1303 31.4233 52.5118 0.00265862 -0.00151697 -0.00267593
40 6 28.5298 31.8785 46.8905 0.00640763 0.00175557 -0.0017196
6 3 29.3359 31.2611 51.5259 0.00308969 -0.00159314 -0.0025734
11 3 29.8851 33.5109 47.1526 0.00205654 0.00461647 -0.00234287
13 3 28.9689 32.7247 45.0307 -0.000990363 0.00621133 9.16435e-05
22 1 35.4915 26.3236 44.831 -0.00175049 0.000163827 0.00364466
60 6 37.9338 22.7873 44.5063 0.000179246 0.00595706 -0.00393626
20 1 34.0112 28.3351 43.898 -0.00527237 -0.00784802 0.00234295
46 6 31.7778 29.6783 43.0343 -0.00350922 0.00218018 0.000307055
26 5 39.7597 24.2812 44.607 0.00203594 0.00290489 0.00294227
56 6 37.6643 26.4876 44.8882 -0.00371814 -0.000891252 0.0213091
50 6 33.127 27.7413 44.1297 -0.00570123 -0.00519039 0.00751247
51 6 34.2741 28.1433 42.8577 -0.00841216 -0.0140415 0.00269275
61 6 37.6268 24.1844 43.4778 0.000146745 0.0124642 0.00676685
19 1 33.6556 29.854 44.0576 -0.0013252 -0.00539005 -0.00445906
55 6 35.472 25.9217 43.818 0.00394995 0.00371322 0.00212772
62 7 40.0967 23.3365 43.6885 -0.00360738 0.0155318 -0.0121112
52 6 36.0926 28.368 44.4319 -0.00403561 0.0022807 0.00794219
21 1 35.1993 27.8557 44.7893 -0.00362545 -0.000264987 0.00531937
25 1 38.0035 23.8737 44.4523 -8.99353e-05 0.00641441 0.0049277
31 1 30.9072 28.7372 52.6634 0.00136931 -0.00584487 -0.0069923
68 6 31.7496 28.6382 51.9788 -0.00142385 -0.00630797 -0.0103621
59 6 36.2121 23.9373 45.6636 -0.00371196 -0.00564177 0.00414158
58 6 37.6774 24.2991 46.5392 -0.00499518 -0.00742209 0.00798617
57 6 36.9036 26.4501 46.4685 -0.0143597 -0.0087549 0.015932
33 6 30.7417 26.5753 52.7423 0.00627604 -0.00380056 -0.00517897
32 6 31.3891 27.2977 54.2295 0.00720389 -0.00359508 -0.00552865
67 6 31.0866 29.5662 53.3481 0.00513226 -0.00500124 -0.00899867
54 6 34.7049 25.8327 45.4039 -0.00615255 -0.00209468 -0.00433609
24 1 37.1543 24.4818 45.6006 -0.00432659 -0.00410121 0.00826024
1 1 30.6681 27.4244 53.4218 0.00581753 -0.00444433 -0.00442443
53 6 35.025 28.1886 45.8125 -0.0078473 -0.00313067 0.00553143
66 6 30.0514 28.8505 49.3202 0.00118349 -0.00020602 -0.00267762
23 1 36.8785 26.0086 45.4722 -0.00736856 -0.00415531 0.0137179
15 5 29.9696 33.69 42.6102 -0.00785322 0.00121577 -0.000652954
45 6 32.1034 32.0838 44.1573 0.00575971 0.00485835 -0.00117921
16 1 30.7258 32.0361 42.494 -0.00438626 0.00229462 0.00418998
17 1 32.1479 31.8227 43.1 -0.000772327 0.00275408 -0.000934098
43 6 30.7749 31.7986 41.4313 -0.00715966 0.00079908 0.00439517
44 6 32.8596 32.4938 42.6191 -0.00216235 0.00142938 -0.00483936
42 6 30.0385 31.3171 42.9399 -0.00239926 0.00235602 0.0073529
47 6 33.0787 30.2039 41.9818 -0.00543184 2.67436e-06 -0.00288065
48 6 34.5642 30.4514 43.9821 0.000276392 -0.00803465 -0.00611422
18 1 32.6416 30.34 42.9709 -0.00259294 0.000789164 -0.00173393
63 6 30.8458 35.4712 44.5804 0.00896419 0.000866841 -0.00317364
64 6 30.9263 35.3604 46.9493 0.00737464 0.00294706 0.000684212
28 3 30.4309 34.6197 46.4529 0.00625816 0.00461083 -0.000684304
27 3 30.376 34.7013 45.0568 0.00677966 0.00338981 -0.00125108
10 4 30.5207 34.3702 49.1795 -0.00108126 -0.00218967 0.000754658
65 6 30.3224 30.7223 47.8706 0.00808834 6.03392e-05 -0.00161579
49 6 33.2237 30.0099 45.0461 0.000772948 -0.00220512 -0.00404533
9 3 30.0836 33.3758 48.5447 -0.00245579 0.000938089 -0.002654
76 1 52.3014 28.8519 3.41445 0.000104359 0.000693859 0.00119754
99 6 52.0473 27.9309 3.93904 0.000745618 0.00113941 0.00229037
77 1 50.9899 29.5256 2.92046 1.97815e-06 0.000244966 0.000827372
109 6 49.9203 29.2427 4.78903 -0.00134383 -0.000456495 -0.000214043
116 6 55.4355 26.7292 1.0295 -0.00209428 0.00139487 -0.0010043
70 4 53.1364 29.1457 9.66587 -0.000900059 0.00139675 0.00159219
101 6 50.4375 28.7948 2.32992 0.000522669 0.000146764 0.000461833
104 6 53.5752 29.4688 1.78367 -0.000858679 0.00014753 -0.0001516
107 6 54.2326 29.6116 7.20375 0.000459089 -0.00122227 0.000259349
74 1 57.7795 29.6374 3.0955 0.00138787 -8.8144e-05 -0.00118309
78 1 53.2698 28.53 2.24571 -0.000252692 0.000466674 0.000897349
79 1 56.7459 29.7894 1.94897 0.0016238 -0.000118041 -0.00138859
82 1 54.5219 27.7333 2.69868 0.000627547 0.00138159 0.000300743
83 3 56.5023 28.5017 1.25913 0.000101413 0.00012818 -0.00107161
85 3 55.5028 27.5724 1.59949 -0.000598416 0.00110145 -0.000746909
94 6 55.8882 29.8146 5.33588 0.00291394 -0.00140155 0.00142238
95 6 57.4452 28.8768 3.80109 0.00133377 -0.000304526 -0.00144197
96 6 58.7166 29.2828 2.66615 0.00156843 -0.000298777 -0.000615051
100 6 52.8191 29.5082 4.11407 0.000159116 0.00128487 0.000602631
103 6 52.7404 27.946 1.49285 -0.000337541 -0.000483487 0.00169407
111 6 54.9919 28.222 3.55216 0.00100357 0.00260533 -0.000607117
112 6 54.2104 26.7435 3.03209 0.00151253 0.00151511 0.00152392
113 6 57.1236 28.2592 0.487353 -0.00100324 -0.000239055 -0.00184551
87 1 49.6141 31.8231 5.86185 -0.00184246 -0.00201757 0.00177611
84 1 50.571 31.3216 4.75727 -0.00187302 -0.000388793 0.00111392
102 6 51.2308 30.3598 2.26142 -0.000154963 0.000404606 0.000972071
110 6 49.0819 30.2504 3.61574 -0.000776163 -0.000258942 -0.000434236
115 6 50.6946 32.114 4.01903 -0.00244388 0.000329258 0.00178906
120 6 48.641 32.0707 5.43772 -0.00212264 -0.00243798 0.00217349
121 6 50.0271 32.7165 6.33031 -0.00256222 -0.00220193 0.00276213
114 6 51.5417 31.1321 5.21565 -0.00176114 -0.000226729 0.000943982
71 1 56.8937 31.6046 4.63454 0.000819176 -0.000892395 -0.000149508
72 1 58.0798 30.9565 3.86243 0.000855026 -0.000234772 -0.000461279
73 1 56.3056 30.7236 5.76882 0.00210572 -0.000649084 0.000621668
75 1 55.1894 31.444 6.57142 0.00144763 -0.00149103 0.000358879
89 6 56.1019 31.8718 3.93468 0.00020819 -0.00155156 0.000290034
90 6 57.2573 32.5324 5.07637 6.19938e-05 -0.00029699 -0.000776612
91 6 58.4607 31.6879 3.14964 0.000771057 0.000160982 -0.000100088
80 1 54.5859 30.5314 7.66985 0.000780697 -0.00135368 0.000274885
97 6 55.5978 32.3414 7.03615 0.000723276 -0.0010232 9.21232e-05
98 6 54.3983 31.7449 5.88453 0.00168487 -0.00183089 -6.31907e-05
105 6 57.1187 30.5083 1.21942 0.00235066 -0.000781451 -0.00167088
106 6 55.8088 30.187 2.33861 0.00182192 0.00111783 -0.0021733
117 6 52.6426 31.4955 7.7115 0.0014723 0.000121256 -0.00129676
92 6 58.8814 30.7591 4.57412 0.000978995 -0.000154947 -0.000578789
69 8 51.6747 30.7602 10.1088 -0.00226894 0.00121108 -0.00275304
122 7 51.2442 30.1729 10.7647 -0.00300035 0.00198839 -0.00253711
88 3 52.747 30.3103 9.42316 -0.00104735 0.000867506 -0.000646491
118 6 53.759 32.0775 8.94961 0.00088226 -0.00040389 -0.000703373
86 1 53.4017 31.188 8.43069 0.000617362 -0.000358166 -0.000599356
119 6 49.484 31.0584 6.62762 -0.00129201 -0.00295511 0.000933446
93 6 57.1078 30.4399 6.45008 0.00260883 0.000618836 0.000557366
81 1 50.0568 30.035 4.05305 -0.00102209 -0.000163507 0.000161066
108 6 55.3672 30.2714 8.38404 0.000363491 -0.00166086 0.000619493
ITEM: TIMESTEP
4000
ITEM: NUMBER OF ATOMS
122
ITEM: BOX BOUNDS pp pp pp
0.0000000000000000e+00 6.0000000000000000e+01
0.0000000000000000e+00 6.0000000000000000e+01
0.0000000000000000e+00 6.0000000000000000e+01
ITEM: ATOMS id type xu yu zu vx vy vz
37 6 29.6787 27.908 52.005 -0.000597007 0.0143336 0.00225764
41 6 28.5958 32.0114 44.7559 0.00444808 0.000914777 0.000680265
42 6 28.7687 31.7579 42.152 -0.000294868 -0.0107606 0.00632345
15 5 29.1402 33.9772 42.8177 -0.00525861 -0.00469815 0.00104579
43 6 29.1558 32.7818 40.7936 -0.0190464 -0.0158635 0.00241841
16 1 29.4723 32.5129 41.8013 -0.00797656 -0.00576859 0.00163825
14 3 29.9093 33.5962 44.3233 0.0017586 -0.00104079 -0.00122983
40 6 29.6505 31.3499 46.7817 0.00768178 -0.00591829 -0.00526572
13 3 29.4203 32.5203 45.0746 0.00691507 -0.0015245 -0.00179444
12 3 30.0468 32.1447 46.28 0.00664051 -0.00379443 -0.0027201
55 6 33.8923 26.6252 44.3801 -0.00878604 -0.000303044 0.000130015
20 1 32.5992 28.4937 42.9541 0.0112221 0.00441882 -0.00439756
48 6 32.7011 29.6558 41.1602 -0.00766282 -0.00323532 -0.00985722