ITEM: TIMESTEP
0
ITEM: NUMBER OF ATOMS
122
ITEM: BOX BOUNDS pp pp pp
0.0000000000000000e+00 6.0000000000000000e+01
0.0000000000000000e+00 6.0000000000000000e+01
0.0000000000000000e+00 6.0000000000000000e+01
ITEM: ATOMS id type xu yu zu vx vy vz
35 6 22.4245 32.5442 52.4776 0 0 0
7 3 28.8417 33.597 52.3638 0 0 0
8 3 29.1647 32.5926 51.4452 0 0 0
12 3 29.4719 31.6235 48.6711 0 0 0
13 3 29.6142 30.9649 47.4831 0 0 0
29 3 28.2658 31.5465 51.2126 0 0 0
30 3 27.0742 31.5055 51.8894 0 0 0
37 6 24.569 32.1876 51.6085 0 0 0
40 6 28.4894 31.9107 49.0156 0 0 0
41 6 28.7437 30.7314 46.8881 0 0 0
65 6 28.5119 30.7697 50.5038 0 0 0
66 6 26.3796 30.698 51.7104 0 0 0
1 1 23.5234 33.6561 53.9915 0 0 0
2 1 23.1577 32.3482 53.26 0 0 0
3 1 24.4817 31.8506 52.6414 0 0 0
4 2 25.5417 32.4685 53.4792 0 0 0
5 3 26.7533 32.51 52.799 0 0 0
6 3 27.6459 33.5529 53.0329 0 0 0
31 1 25.0378 33.8389 53.7533 0 0 0
32 6 22.9698 34.4942 53.5682 0 0 0
33 6 23.3163 33.5643 55.0577 0 0 0
34 6 22.7709 31.6144 53.9672 0 0 0
36 6 24.5411 30.7635 52.694 0 0 0
38 6 27.3957 34.3282 53.742 0 0 0
39 6 29.5334 34.4062 52.5453 0 0 0
67 6 25.2121 34.4869 52.8944 0 0 0
68 6 25.5158 34.2488 54.643 0 0 0
62 7 42.4592 24.0606 37.1867 0 0 0
17 1 33.1791 28.7554 44.0845 0 0 0
18 1 34.6911 28.5447 43.9828 0 0 0
19 1 35.0167 27.8063 42.6828 0 0 0
20 1 36.5288 27.5955 42.581 0 0 0
21 1 36.8544 26.8573 41.2811 0 0 0
44 6 32.6764 27.7883 44.0802 0 0 0
45 6 32.8367 29.3468 43.2353 0 0 0
46 6 35.194 29.5117 43.9871 0 0 0
47 6 35.0335 27.9533 44.832 0 0 0
48 6 34.5139 26.8392 42.6785 0 0 0
49 6 34.6744 28.3977 41.8335 0 0 0
50 6 37.0316 28.5627 42.5854 0 0 0
51 6 36.8712 27.0042 43.4302 0 0 0
52 6 36.3516 25.8901 41.2767 0 0 0
53 6 36.512 27.4486 40.4319 0 0 0
22 1 38.3664 26.6465 41.1793 0 0 0
23 1 38.692 25.9082 39.8793 0 0 0
24 1 40.204 25.6975 39.7776 0 0 0
25 1 40.5296 24.9591 38.4776 0 0 0
26 5 42.3223 24.7092 38.3569 0 0 0
54 6 38.8691 27.6135 41.1836 0 0 0
55 6 38.7088 26.0552 42.0285 0 0 0
56 6 38.1892 24.9411 39.875 0 0 0
57 6 38.3496 26.4995 39.0301 0 0 0
58 6 40.7067 26.6645 39.7819 0 0 0
59 6 40.5464 25.1061 40.6268 0 0 0
60 6 40.0268 23.992 38.4733 0 0 0
61 6 40.1872 25.5505 37.6284 0 0 0
15 5 31.0609 29.7436 45.5052 0 0 0
16 1 32.8535 29.4937 45.3845 0 0 0
43 6 33.1959 28.9024 46.2336 0 0 0
9 3 30.4501 32.6365 50.724 0 0 0
10 4 31.3868 33.2592 51.1876 0 0 0
11 3 30.6003 31.9257 49.4414 0 0 0
14 3 30.8814 30.5933 47.0383 0 0 0
27 3 32.0072 30.8927 47.8032 0 0 0
28 3 31.872 31.5567 48.9889 0 0 0
42 6 33.3563 30.4608 45.3888 0 0 0
63 6 32.9879 30.6034 47.4557 0 0 0
64 6 32.7448 31.7883 49.5813 0 0 0
76 1 52.3007 29.0327 3.40902 0 0 0
77 1 51.0874 29.8373 2.93614 0 0 0
99 6 51.9698 28.0835 3.84665 0 0 0
101 6 50.5952 29.3 2.11608 0 0 0
109 6 49.6932 29.1188 4.41708 0 0 0
74 1 57.8327 29.4873 3.14253 0 0 0
78 1 53.2664 28.7555 2.25115 0 0 0
79 1 56.8282 29.7827 2.02608 0 0 0
82 1 54.5134 27.9771 2.68388 0 0 0
83 3 56.4991 28.5355 1.25751 0 0 0
85 3 55.467 27.7308 1.551 0 0 0
94 6 55.8971 29.6926 5.22244 0 0 0
95 6 57.446 28.7056 3.80699 0 0 0
96 6 58.7534 29.0815 2.70292 0 0 0
100 6 52.8416 29.5815 4.18751 0 0 0
103 6 52.7409 28.1924 1.46897 0 0 0
104 6 53.5674 29.7102 1.80157 0 0 0
107 6 54.1202 29.5674 7.07239 0 0 0
111 6 55.0019 28.4884 3.51746 0 0 0
112 6 54.2089 27.0019 3.08483 0 0 0
113 6 57.1463 28.2762 0.42395 0 0 0
116 6 55.295 26.8523 0.935 0 0 0
70 4 53.0083 29.3098 9.62937 0 0 0
81 1 50.0538 30.0835 4.03921 0 0 0
84 1 50.5909 30.9218 5.20015 0 0 0
87 1 49.5317 31.1267 6.27253 0 0 0
102 6 51.4198 30.8 2.52901 0 0 0
110 6 49.1882 30.5926 3.59766 0 0 0
114 6 51.4496 30.426 5.66263 0 0 0
115 6 50.9324 31.8958 4.83204 0 0 0
119 6 49.2022 30.1684 6.68687 0 0 0
120 6 48.6574 31.6452 5.8662 0 0 0
121 6 49.9336 31.7303 7.09232 0 0 0
71 1 57.0337 31.445 4.64838 0 0 0
72 1 58.2032 30.721 3.97199 0 0 0
73 1 56.3137 30.5881 5.69257 0 0 0
75 1 55.1816 31.33 6.41108 0 0 0
89 6 56.3192 31.81 3.90301 0 0 0
90 6 57.433 32.3382 5.14565 0 0 0
91 6 58.7172 31.438 3.31928 0 0 0
92 6 58.9323 30.4238 4.73587 0 0 0
93 6 57.0433 30.244 6.43626 0 0 0
97 6 55.5791 32.251 6.85487 0 0 0
98 6 54.4271 31.6317 5.6739 0 0 0
105 6 57.2546 30.5152 1.32965 0 0 0
106 6 55.9187 30.2445 2.41984 0 0 0
117 6 52.6144 31.5259 7.4676 0 0 0
69 8 51.6913 31.1431 9.8705 0 0 0
122 7 51.2456 30.6247 10.574 0 0 0
80 1 54.5123 30.4949 7.50829 0 0 0
86 1 53.3769 31.2496 8.20222 0 0 0
88 3 52.7078 30.4476 9.2963 0 0 0
108 6 55.2629 30.1978 8.2512 0 0 0
118 6 53.7732 32.1653 8.65577 0 0 0
ITEM: TIMESTEP
25
ITEM: NUMBER OF ATOMS
122
ITEM: BOX BOUNDS pp pp pp
0.0000000000000000e+00 6.0000000000000000e+01
0.0000000000000000e+00 6.0000000000000000e+01
0.0000000000000000e+00 6.0000000000000000e+01
ITEM: ATOMS id type xu yu zu vx vy vz
35 6 22.3561 32.5323 52.4881 0 0 0
7 3 28.9203 33.585 52.3686 0 0 0
8 3 29.2445 32.5738 51.4394 0 0 0
12 3 29.4916 31.6958 48.5855 0 0 0
13 3 29.6513 30.9628 47.4107 0 0 0
29 3 28.3399 31.4853 51.2994 0 0 0
30 3 27.1243 31.4693 51.953 0 0 0
37 6 24.462 32.1827 51.6167 0 0 0
40 6 28.5486 32.0195 48.8042 0 0 0
41 6 28.8187 30.7289 46.8577 0 0 0
65 6 28.5463 30.6787 50.7102 0 0 0
66 6 26.5004 30.6853 51.7486 0 0 0
1 1 23.4567 33.6658 54.0051 0 0 0
2 1 23.0916 32.3633 53.277 0 0 0
3 1 24.4016 31.873 52.6689 0 0 0
4 2 25.4855 32.5011 53.4693 0 0 0
5 3 26.765 32.5085 52.8392 0 0 0
6 3 27.7138 33.5421 53.0658 0 0 0
31 1 24.954 33.8496 53.7723 0 0 0
32 6 22.9115 34.5201 53.6 0 0 0
33 6 23.2629 33.5738 55.076 0 0 0
34 6 22.7157 31.6189 53.9827 0 0 0
36 6 24.4561 30.7812 52.7241 0 0 0
38 6 27.526 34.2979 53.7244 0 0 0
39 6 29.5486 34.3792 52.5282 0 0 0
67 6 25.1181 34.5325 52.9278 0 0 0
68 6 25.4317 34.2596 54.6667 0 0 0
62 7 42.3552 24.0668 37.1783 0 0 0
17 1 33.1569 28.7475 44.0664 0 0 0
18 1 34.6794 28.5446 43.9804 0 0 0
19 1 35.0146 27.8053 42.6804 0 0 0
20 1 36.5309 27.5954 42.5811 0 0 0
21 1 36.8584 26.8549 41.2775 0 0 0
44 6 32.6514 27.7779 44.0615 0 0 0
45 6 32.8118 29.3409 43.2151 0 0 0
46 6 35.189 29.5143 43.9928 0 0 0
47 6 35.0289 27.9574 44.8368 0 0 0
48 6 34.5073 26.8353 42.6702 0 0 0
49 6 34.6677 28.394 41.8251 0 0 0
50 6 37.0383 28.5655 42.5919 0 0 0
51 6 36.8779 27.0071 43.4368 0 0 0
52 6 36.3481 25.8863 41.2683 0 0 0
53 6 36.5084 27.4442 40.4237 0 0 0
22 1 38.3754 26.6417 41.1722 0 0 0
23 1 38.7088 25.8998 39.867 0 0 0
24 1 40.229 25.6813 39.7526 0 0 0
25 1 40.5855 24.9392 38.4514 0 0 0
26 5 42.3762 24.7128 38.3737 0 0 0
54 6 38.8811 27.6126 41.1854 0 0 0
55 6 38.7209 26.0553 42.0297 0 0 0
56 6 38.1949 24.9334 39.8598 0 0 0
57 6 38.3551 26.49 39.0159 0 0 0
58 6 40.7315 26.6535 39.7697 0 0 0
59 6 40.5714 25.0979 40.6131 0 0 0
60 6 40.088 23.9663 38.4351 0 0 0
61 6 40.2481 25.5228 37.5912 0 0 0
15 5 31.04 29.721 45.4864 0 0 0
16 1 32.8211 29.4805 45.3573 0 0 0
43 6 33.1681 28.8793 46.2032 0 0 0
9 3 30.4265 32.6224 50.691 0 0 0
10 4 31.4032 33.2675 51.1774 0 0 0
11 3 30.5919 31.9832 49.45 0 0 0
14 3 30.9373 30.5726 47.0012 0 0 0
27 3 32.0427 30.9107 47.8218 0 0 0
28 3 31.8751 31.5998 49.0197 0 0 0
42 6 33.3253 30.4521 45.3503 0 0 0
63 6 32.9961 30.6677 47.5821 0 0 0
64 6 32.7068 31.7983 49.5858 0 0 0
76 1 52.3096 29.0204 3.39319 0 0 0
77 1 51.0814 29.8415 2.92374 0 0 0
99 6 51.9721 28.0765 3.83134 0 0 0
101 6 50.5869 29.3017 2.11101 0 0 0
109 6 49.6906 29.1133 4.41461 0 0 0
74 1 57.8541 29.4841 3.12818 0 0 0
78 1 53.2714 28.7336 2.21993 0 0 0
79 1 56.8546 29.7821 1.98024 0 0 0
82 1 54.5053 27.9213 2.67741 0 0 0
83 3 56.5191 28.5504 1.23689 0 0 0
85 3 55.446 27.702 1.55645 0 0 0
94 6 55.897 29.7056 5.23155 0 0 0
95 6 57.4526 28.7117 3.78987 0 0 0
96 6 58.7724 29.0804 2.69375 0 0 0
100 6 52.8602 29.5761 4.15616 0 0 0
103 6 52.7392 28.1738 1.44713 0 0 0
104 6 53.5917 29.6896 1.79316 0 0 0
107 6 54.1154 29.5666 7.06159 0 0 0
111 6 54.9965 28.4407 3.49819 0 0 0
112 6 54.188 26.9539 3.06996 0 0 0
113 6 57.1224 28.2883 0.45321 0 0 0
116 6 55.2911 26.8851 0.960651 0 0 0
70 4 53.0002 29.336 9.61954 0 0 0
81 1 50.0377 30.0803 4.03949 0 0 0
84 1 50.5777 30.932 5.21636 0 0 0
87 1 49.5088 31.1444 6.30266 0 0 0
102 6 51.4142 30.8062 2.53011 0 0 0
110 6 49.1801 30.5942 3.59601 0 0 0
114 6 51.4237 30.4275 5.6841 0 0 0
115 6 50.9184 31.9023 4.84333 0 0 0
119 6 49.192 30.1801 6.7059 0 0 0
120 6 48.644 31.6603 5.88302 0 0 0
121 6 49.923 31.7453 7.11319 0 0 0
71 1 57.0489 31.4659 4.66276 0 0 0
72 1 58.2285 30.7367 3.96436 0 0 0
73 1 56.3237 30.586 5.71083 0 0 0
75 1 55.1791 31.3465 6.41391 0 0 0
89 6 56.332 31.8261 3.92171 0 0 0
90 6 57.4504 32.3489 5.16568 0 0 0
91 6 58.7329 31.4503 3.3087 0 0 0
92 6 58.9479 30.4336 4.73032 0 0 0
93 6 57.0503 30.2488 6.45456 0 0 0
97 6 55.5794 32.2581 6.86593 0 0 0
98 6 54.4269 31.6304 5.67107 0 0 0
105 6 57.2888 30.5117 1.29425 0 0 0
106 6 55.9418 30.2295 2.37158 0 0 0
117 6 52.627 31.5353 7.47507 0 0 0
69 8 51.6643 31.0988 9.91925 0 0 0
122 7 51.1968 30.616 10.6278 0 0 0
80 1 54.5162 30.4805 7.51145 0 0 0
86 1 53.3741 31.2495 8.21618 0 0 0
88 3 52.6869 30.4991 9.27808 0 0 0
108 6 55.2705 30.1993 8.25274 0 0 0
118 6 53.7768 32.163 8.65915 0 0 0
ITEM: TIMESTEP
50
ITEM: NUMBER OF ATOMS
122
ITEM: BOX BOUNDS pp pp pp
0.0000000000000000e+00 6.0000000000000000e+01
0.0000000000000000e+00 6.0000000000000000e+01
0.0000000000000000e+00 6.0000000000000000e+01
ITEM: ATOMS id type xu yu zu vx vy vz
35 6 22.2284 32.5551 52.5563 0 0 0
7 3 28.9118 33.5749 52.448 0 0 0
8 3 29.2509 32.5691 51.5145 0 0 0
12 3 29.5209 31.7746 48.6041 0 0 0
13 3 29.6927 31.0781 47.3999 0 0 0
29 3 28.3729 31.4604 51.4174 0 0 0
30 3 27.1435 31.4393 52.0913 0 0 0
37 6 24.3448 32.206 51.6488 0 0 0
40 6 28.5808 32.1059 48.8283 0 0 0
41 6 28.8749 30.8995 46.8099 0 0 0
65 6 28.6208 30.6432 50.8544 0 0 0
66 6 26.5531 30.615 51.9733 0 0 0
1 1 23.3382 33.6902 54.0625 0 0 0
2 1 22.9849 32.3876 53.3279 0 0 0
3 1 24.3066 31.9101 52.7038 0 0 0
4 2 25.4017 32.5554 53.4799 0 0 0
5 3 26.7218 32.5265 52.8942 0 0 0
6 3 27.6753 33.5538 53.1168 0 0 0
31 1 24.8412 33.8926 53.8129 0 0 0
32 6 22.7623 34.5361 53.6768 0 0 0
33 6 23.1429 33.5873 55.1336 0 0 0
34 6 22.6091 31.6437 54.0363 0 0 0
36 6 24.3695 30.8209 52.7698 0 0 0
38 6 27.4762 34.3172 53.7629 0 0 0
39 6 29.5483 34.3564 52.6266 0 0 0
67 6 24.9818 34.594 52.9817 0 0 0
68 6 25.3149 34.3007 54.709 0 0 0
62 7 42.3604 24.0104 37.0753 0 0 0
17 1 33.1107 28.717 44.0157 0 0 0
18 1 34.639 28.5138 43.9174 0 0 0
19 1 35.0206 27.7748 42.6236 0 0 0
20 1 36.5477 27.5691 42.5342 0 0 0
21 1 36.9168 26.8255 41.2335 0 0 0
44 6 32.6037 27.7477 44.0085 0 0 0
45 6 32.7569 29.3069 43.1652 0 0 0
46 6 35.1387 29.4878 43.9363 0 0 0
47 6 34.9856 27.9331 44.7785 0 0 0
48 6 34.5201 26.8022 42.6057 0 0 0
49 6 34.6798 28.3587 41.7636 0 0 0
50 6 37.0484 28.5421 42.5543 0 0 0
51 6 36.8884 26.988 43.3968 0 0 0
52 6 36.4094 25.8563 41.2194 0 0 0
53 6 36.5694 27.4102 40.3764 0 0 0
22 1 38.4408 26.6064 41.1192 0 0 0
23 1 38.8059 25.8615 39.8147 0 0 0
24 1 40.3321 25.6388 39.6937 0 0 0
25 1 40.6987 24.8949 38.3912 0 0 0
26 5 42.4805 24.6463 38.271 0 0 0
54 6 38.945 27.5772 41.136 0 0 0
55 6 38.7848 26.0233 41.9785 0 0 0
56 6 38.2963 24.8934 39.8005 0 0 0
57 6 38.4561 26.4461 38.9585 0 0 0
58 6 40.838 26.6085 39.7097 0 0 0
59 6 40.6781 25.0553 40.5518 0 0 0
60 6 40.2099 23.9187 38.3688 0 0 0
61 6 40.3699 25.4738 37.5257 0 0 0
15 5 31.0203 29.7172 45.5209 0 0 0
16 1 32.7899 29.4567 45.3198 0 0 0
43 6 33.1541 28.8633 46.1625 0 0 0
9 3 30.4295 32.66 50.7328 0 0 0
10 4 31.3807 33.3528 51.1766 0 0 0
11 3 30.6107 32.0321 49.4767 0 0 0
14 3 30.9672 30.6318 47.0103 0 0 0
27 3 32.0737 30.9498 47.8363 0 0 0
28 3 31.9 31.6553 49.036 0 0 0
42 6 33.2864 30.43 45.3018 0 0 0
63 6 33.0237 30.6736 47.5992 0 0 0
64 6 32.729 31.8612 49.6011 0 0 0
76 1 52.3064 29.0049 3.36075 0 0 0
77 1 51.0732 29.8482 2.93226 0 0 0
99 6 51.9621 28.0644 3.79918 0 0 0
101 6 50.5689 29.3321 2.11015 0 0 0
109 6 49.6846 29.1061 4.42916 0 0 0
74 1 57.8853 29.501 3.1027 0 0 0
78 1 53.2635 28.6933 2.17942 0 0 0
79 1 56.8907 29.7644 1.94 0 0 0
82 1 54.497 27.8624 2.62186 0 0 0
83 3 56.5442 28.5196 1.21451 0 0 0
85 3 55.4655 27.6685 1.51759 0 0 0
94 6 55.9343 29.723 5.25561 0 0 0
95 6 57.4862 28.731 3.76587 0 0 0
96 6 58.8113 29.1033 2.67619 0 0 0
100 6 52.8684 29.5519 4.12129 0 0 0
103 6 52.7187 28.138 1.4106 0 0 0
104 6 53.5989 29.6377 1.74205 0 0 0
107 6 54.0793 29.6114 7.06771 0 0 0
111 6 54.9857 28.3428 3.46939 0 0 0
112 6 54.1626 26.8798 2.96549 0 0 0
113 6 57.1492 28.2479 0.434368 0 0 0
116 6 55.33 26.8521 0.914809 0 0 0
70 4 52.9544 29.3384 9.61269 0 0 0
81 1 50.0263 30.0763 4.05849 0 0 0
84 1 50.5409 30.9304 5.24823 0 0 0
87 1 49.4639 31.1704 6.32921 0 0 0
102 6 51.4097 30.8178 2.55497 0 0 0
110 6 49.163 30.5831 3.61717 0 0 0
114 6 51.3817 30.4228 5.72281 0 0 0
115 6 50.8886 31.8985 4.87744 0 0 0
119 6 49.1291 30.2197 6.74917 0 0 0
120 6 48.6056 31.6947 5.90515 0 0 0
121 6 49.8793 31.7783 7.13539 0 0 0
71 1 57.0899 31.4775 4.68534 0 0 0
72 1 58.2534 30.7582 3.94233 0 0 0
73 1 56.3517 30.6067 5.73897 0 0 0
75 1 55.1932 31.3658 6.43988 0 0 0
89 6 56.3721 31.8589 3.95655 0 0 0
90 6 57.5139 32.3455 5.19854 0 0 0
91 6 58.7335 31.4836 3.27941 0 0 0
92 6 59.0003 30.4623 4.68452 0 0 0
93 6 57.0738 30.2748 6.49 0 0 0
97 6 55.5886 32.2761 6.89874 0 0 0
98 6 54.453 31.6558 5.68829 0 0 0
105 6 57.3451 30.4633 1.23273 0 0 0
106 6 55.9823 30.2353 2.31378 0 0 0
117 6 52.6173 31.5996 7.52196 0 0 0
69 8 51.6276 31.0866 9.97058 0 0 0
122 7 51.1618 30.5765 10.6653 0 0 0
80 1 54.4951 30.5109 7.53154 0 0 0
86 1 53.3571 31.2801 8.25737 0 0 0
88 3 52.6507 30.5123 9.30276 0 0 0
108 6 55.2396 30.202 8.27105 0 0 0
118 6 53.7725 32.175 8.72597 0 0 0
ITEM: TIMESTEP
75
ITEM: NUMBER OF ATOMS
122
ITEM: BOX BOUNDS pp pp pp
0.0000000000000000e+00 6.0000000000000000e+01
0.0000000000000000e+00 6.0000000000000000e+01
0.0000000000000000e+00 6.0000000000000000e+01
ITEM: ATOMS id type xu yu zu vx vy vz
35 6 22.2224 32.5559 52.5621 0 0 0
7 3 28.9038 33.5837 52.451 0 0 0
8 3 29.2434 32.5738 51.522 0 0 0
12 3 29.5154 31.7781 48.6116 0 0 0
13 3 29.6896 31.0824 47.4061 0 0 0
29 3 28.3672 31.4653 51.4259 0 0 0
30 3 27.1369 31.4453 52.0988 0 0 0
37 6 24.3412 32.2135 51.6557 0 0 0
40 6 28.574 32.1077 48.8347 0 0 0
41 6 28.8721 30.8999 46.8173 0 0 0
65 6 28.6162 30.6466 50.8653 0 0 0
66 6 26.5461 30.6216 51.9798 0 0 0
1 1 23.3308 33.6898 54.0702 0 0 0
2 1 22.9789 32.3881 53.3338 0 0 0
3 1 24.3018 31.914 52.7098 0 0 0
4 2 25.396 32.5583 53.4883 0 0 0
5 3 26.7159 32.5327 52.9015 0 0 0
6 3 27.6678 33.5621 53.1214 0 0 0
31 1 24.8338 33.8945 53.8209 0 0 0
32 6 22.7536 34.5352 53.6856 0 0 0
33 6 23.1354 33.5846 55.141 0 0 0
34 6 22.6035 31.6427 54.0409 0 0 0
36 6 24.365 30.8247 52.7721 0 0 0
38 6 27.4689 34.3269 53.7661 0 0 0
39 6 29.5388 34.3675 52.6248 0 0 0
67 6 24.9738 34.595 52.9888 0 0 0
68 6 25.3072 34.3041 54.7165 0 0 0
62 7 42.3684 24.0046 37.0662 0 0 0
17 1 33.1102 28.7167 44.0149 0 0 0
18 1 34.638 28.5085 43.908 0 0 0
19 1 35.0201 27.7686 42.6127 0 0 0
20 1 36.5483 27.5626 42.5223 0 0 0
21 1 36.9254 26.8192 41.2232 0 0 0
44 6 32.6016 27.7483 44.0118 0 0 0
45 6 32.7543 29.3041 43.1636 0 0 0
46 6 35.1391 29.4817 43.9257 0 0 0
47 6 34.9857 27.9279 44.7684 0 0 0
48 6 34.5197 26.7961 42.5942 0 0 0
49 6 34.6793 28.3522 41.7525 0 0 0
50 6 37.0482 28.536 42.543 0 0 0
51 6 36.8886 26.9822 43.3854 0 0 0
52 6 36.42 25.849 41.2071 0 0 0
53 6 36.58 27.4026 40.3645 0 0 0
22 1 38.451 26.6017 41.1123 0 0 0
23 1 38.8191 25.8565 39.808 0 0 0
24 1 40.3452 25.6325 39.6846 0 0 0
25 1 40.7114 24.8884 38.3817 0 0 0
26 5 42.493 24.6399 38.2616 0 0 0
54 6 38.9546 27.5728 41.1301 0 0 0
55 6 38.7944 26.0193 41.9724 0 0 0
56 6 38.3097 24.8884 39.7937 0 0 0
57 6 38.4695 26.441 38.9518 0 0 0
58 6 40.8518 26.6018 39.6999 0 0 0
59 6 40.6919 25.0485 40.542 0 0 0
60 6 40.2235 23.9118 38.3586 0 0 0
61 6 40.3836 25.4668 37.5155 0 0 0
15 5 31.0239 29.7358 45.5193 0 0 0
16 1 32.7924 29.4614 45.3193 0 0 0
43 6 33.1514 28.8672 46.1635 0 0 0
9 3 30.4249 32.661 50.7437 0 0 0
10 4 31.3782 33.3429 51.1953 0 0 0
11 3 30.6037 32.0349 49.4849 0 0 0
14 3 30.966 30.6423 47.0146 0 0 0
27 3 32.0706 30.959 47.8426 0 0 0
28 3 31.8938 31.6588 49.0461 0 0 0
42 6 33.2951 30.4314 45.3022 0 0 0
63 6 33.0214 30.6858 47.6047 0 0 0
64 6 32.7206 31.8608 49.615 0 0 0
76 1 52.3067 29.0022 3.35992 0 0 0
77 1 51.0749 29.8477 2.93359 0 0 0
99 6 51.962 28.0607 3.79614 0 0 0
101 6 50.5702 29.3345 2.10995 0 0 0
109 6 49.6889 29.1027 4.43142 0 0 0
74 1 57.884 29.5 3.10464 0 0 0
78 1 53.2621 28.6932 2.17672 0 0 0
79 1 56.8891 29.7632 1.94243 0 0 0
82 1 54.4957 27.8624 2.61805 0 0 0
83 3 56.5457 28.5184 1.21584 0 0 0
85 3 55.4637 27.6698 1.5134 0 0 0
94 6 55.9331 29.7237 5.25868 0 0 0
95 6 57.4843 28.731 3.7687 0 0 0
96 6 58.8096 29.1015 2.67838 0 0 0
100 6 52.8694 29.547 4.12165 0 0 0
103 6 52.717 28.1387 1.40742 0 0 0
104 6 53.5969 29.6384 1.74052 0 0 0
107 6 54.0787 29.6152 7.06539 0 0 0
111 6 54.9841 28.343 3.46581 0 0 0
112 6 54.162 26.8795 2.9613 0 0 0
113 6 57.1548 28.2454 0.439401 0 0 0
116 6 55.3262 26.8563 0.907271 0 0 0
70 4 52.9491 29.3375 9.60634 0 0 0
81 1 50.0286 30.0735 4.06045 0 0 0
84 1 50.5422 30.9284 5.24992 0 0 0
87 1 49.4618 31.1706 6.32698 0 0 0
102 6 51.4128 30.818 2.5593 0 0 0
110 6 49.1642 30.5786 3.61947 0 0 0
114 6 51.3816 30.4204 5.72696 0 0 0
115 6 50.8918 31.8957 4.87887 0 0 0
119 6 49.1244 30.2206 6.74628 0 0 0
120 6 48.6056 31.6954 5.89914 0 0 0
121 6 49.8748 31.7788 7.13414 0 0 0
71 1 57.088 31.4774 4.68453 0 0 0
72 1 58.2518 30.7585 3.94208 0 0 0
73 1 56.3524 30.6075 5.7404 0 0 0
75 1 55.1964 31.3687 6.44274 0 0 0
89 6 56.3685 31.8556 3.95576 0 0 0
90 6 57.5108 32.3474 5.1953 0 0 0
91 6 58.7301 31.4835 3.27752 0 0 0
92 6 58.9998 30.4644 4.6839 0 0 0
93 6 57.0758 30.276 6.49028 0 0 0
97 6 55.5944 32.2767 6.90373 0 0 0
98 6 54.4568 31.6625 5.69195 0 0 0
105 6 57.3413 30.4642 1.23595 0 0 0
106 6 55.9798 30.2313 2.3175 0 0 0
117 6 52.6228 31.6079 7.52379 0 0 0
69 8 51.6286 31.0883 9.97071 0 0 0
122 7 51.1613 30.576 10.6628 0 0 0
80 1 54.4965 30.5125 7.53193 0 0 0
86 1 53.3604 31.283 8.25914 0 0 0
88 3 52.6501 30.5137 9.30089 0 0 0
108 6 55.2402 30.1997 8.27058 0 0 0
118 6 53.7789 32.1745 8.73138 0 0 0
ITEM: TIMESTEP
82
ITEM: NUMBER OF ATOMS
122
ITEM: BOX BOUNDS pp pp pp
0.0000000000000000e+00 6.0000000000000000e+01
0.0000000000000000e+00 6.0000000000000000e+01
0.0000000000000000e+00 6.0000000000000000e+01
ITEM: ATOMS id type xu yu zu vx vy vz
35 6 22.2011 32.5611 52.5827 0 0 0
7 3 28.8801 33.6033 52.4605 0 0 0
8 3 29.2234 32.5846 51.5423 0 0 0
12 3 29.5081 31.7786 48.6326 0 0 0
13 3 29.6879 31.095 47.4198 0 0 0
29 3 28.3485 31.4763 51.4504 0 0 0
30 3 27.1182 31.4586 52.1235 0 0 0
37 6 24.3211 32.2326 51.6742 0 0 0
40 6 28.5645 32.1011 48.8571 0 0 0
41 6 28.8712 30.9125 46.8297 0 0 0
65 6 28.5984 30.6547 50.8945 0 0 0
66 6 26.5293 30.633 52.0094 0 0 0
1 1 23.3062 33.6913 54.0966 0 0 0
2 1 22.9583 32.3923 53.3534 0 0 0
3 1 24.2827 31.927 52.7265 0 0 0
4 2 25.3748 32.5708 53.5082 0 0 0
5 3 26.6946 32.5496 52.9196 0 0 0
6 3 27.643 33.5841 53.13 0 0 0
31 1 24.8083 33.9035 53.8464 0 0 0
32 6 22.7248 34.5362 53.7175 0 0 0
33 6 23.1125 33.5792 55.1671 0 0 0
34 6 22.5861 31.6416 54.0566 0 0 0
36 6 24.349 30.8376 52.7826 0 0 0
38 6 27.4405 34.3543 53.7687 0 0 0
39 6 29.5119 34.3902 52.6272 0 0 0
67 6 24.9438 34.6071 53.0163 0 0 0
68 6 25.2815 34.3123 54.7425 0 0 0
62 7 42.4014 23.9858 37.0377 0 0 0
17 1 33.1132 28.7173 44.0114 0 0 0
18 1 34.6395 28.4954 43.8855 0 0 0
19 1 35.0208 27.7529 42.5872 0 0 0
20 1 36.5514 27.5451 42.4916 0 0 0
21 1 36.9438 26.8017 41.1944 0 0 0
44 6 32.5984 27.7522 44.0179 0 0 0
45 6 32.7528 29.3003 43.1592 0 0 0
46 6 35.1454 29.4658 43.9004 0 0 0
47 6 34.9893 27.9143 44.7441 0 0 0
48 6 34.5197 26.781 42.5689 0 0 0
49 6 34.6786 28.3355 41.7268 0 0 0
50 6 37.05 28.5189 42.5135 0 0 0
51 6 36.8915 26.9662 43.3555 0 0 0
52 6 36.4416 25.8301 41.1751 0 0 0
53 6 36.6016 27.3831 40.3333 0 0 0
22 1 38.4729 26.5868 41.0885 0 0 0
23 1 38.853 25.8412 39.786 0 0 0
24 1 40.3802 25.6166 39.6618 0 0 0
25 1 40.7473 24.8719 38.3581 0 0 0
26 5 42.5284 24.6208 38.2332 0 0 0
54 6 38.9747 27.5586 41.1083 0 0 0
55 6 38.8147 26.006 41.9502 0 0 0
56 6 38.3456 24.8722 39.7697 0 0 0
57 6 38.5055 26.4242 38.928 0 0 0
58 6 40.8879 26.5853 39.6768 0 0 0
59 6 40.7279 25.0324 40.5187 0 0 0
60 6 40.2594 23.8953 38.3345 0 0 0
61 6 40.4194 25.4499 37.4916 0 0 0
15 5 31.0382 29.7832 45.5119 0 0 0
16 1 32.8042 29.473 45.3162 0 0 0
43 6 33.1507 28.876 46.1631 0 0 0
9 3 30.4115 32.6601 50.7699 0 0 0
10 4 31.3671 33.3304 51.2325 0 0 0
11 3 30.5937 32.0353 49.5081 0 0 0
14 3 30.9676 30.6686 47.0214 0 0 0
27 3 32.0684 30.9822 47.8541 0 0 0
28 3 31.8856 31.6658 49.0673 0 0 0
42 6 33.3241 30.4338 45.3004 0 0 0
63 6 33.0202 30.7176 47.6097 0 0 0
64 6 32.7103 31.8636 49.6402 0 0 0
76 1 52.3064 28.995 3.35671 0 0 0
77 1 51.0775 29.8469 2.9365 0 0 0
99 6 51.9591 28.0512 3.78602 0 0 0
101 6 50.5716 29.3415 2.10876 0 0 0
109 6 49.698 29.0931 4.4359 0 0 0
74 1 57.8819 29.4982 3.10922 0 0 0
78 1 53.2592 28.6914 2.17018 0 0 0
79 1 56.8868 29.7591 1.947 0 0 0
82 1 54.4924 27.8582 2.6071 0 0 0
83 3 56.5489 28.5153 1.21662 0 0 0
85 3 55.461 27.6704 1.50227 0 0 0
94 6 55.931 29.7282 5.26487 0 0 0
95 6 57.4816 28.7316 3.77587 0 0 0
96 6 58.8075 29.0981 2.68432 0 0 0
100 6 52.8703 29.5327 4.12265 0 0 0
103 6 52.7127 28.1404 1.39937 0 0 0
104 6 53.5938 29.6383 1.7375 0 0 0
107 6 54.0744 29.6274 7.05978 0 0 0
111 6 54.9807 28.3349 3.4574 0 0 0
112 6 54.1589 26.8738 2.94583 0 0 0
113 6 57.1646 28.2419 0.445524 0 0 0
116 6 55.3209 26.8629 0.888608 0 0 0
70 4 52.9327 29.3333 9.58711 0 0 0
81 1 50.0324 30.0659 4.06532 0 0 0
84 1 50.5438 30.9219 5.25494 0 0 0
87 1 49.4562 31.1718 6.32298 0 0 0
102 6 51.4181 30.8193 2.56993 0 0 0
110 6 49.1651 30.5672 3.6259 0 0 0
114 6 51.3786 30.4119 5.73847 0 0 0
115 6 50.8994 31.8868 4.88353 0 0 0
119 6 49.1105 30.2244 6.74145 0 0 0
120 6 48.6061 31.6995 5.88649 0 0 0
121 6 49.8652 31.7802 7.1319 0 0 0
71 1 57.085 31.4793 4.68242 0 0 0
72 1 58.2494 30.7603 3.9413 0 0 0
73 1 56.3549 30.6117 5.74359 0 0 0
75 1 55.2055 31.3767 6.45182 0 0 0
89 6 56.3622 31.8511 3.95357 0 0 0
90 6 57.5058 32.3535 5.18764 0 0 0
91 6 58.7248 31.4838 3.27308 0 0 0
92 6 58.9992 30.4707 4.68299 0 0 0
93 6 57.0819 30.2796 6.48978 0 0 0
97 6 55.6111 32.2779 6.91978 0 0 0
98 6 54.468 31.6824 5.70364 0 0 0
105 6 57.3353 30.4642 1.24231 0 0 0
106 6 55.9756 30.2223 2.32343 0 0 0
117 6 52.6365 31.632 7.5322 0 0 0
69 8 51.6311 31.0941 9.97148 0 0 0
122 7 51.1567 30.5776 10.6557 0 0 0
80 1 54.499 30.5175 7.53385 0 0 0
86 1 53.3686 31.2913 8.26606 0 0 0
88 3 52.6477 30.5169 9.29641 0 0 0
108 6 55.2399 30.1929 8.27029 0 0 0
118 6 53.795 32.1729 8.74994 0 0 0
ITEM: TIMESTEP
83
ITEM: NUMBER OF ATOMS
122
ITEM: BOX BOUNDS pp pp pp
0.0000000000000000e+00 6.0000000000000000e+01
0.0000000000000000e+00 6.0000000000000000e+01
0.0000000000000000e+00 6.0000000000000000e+01
ITEM: ATOMS id type xu yu zu vx vy vz
7 3 28.8797 33.6032 52.4606 0 0 0
8 3 29.2243 32.5848 51.5419 0 0 0
12 3 29.5079 31.7785 48.6322 0 0 0
13 3 29.6879 31.0951 47.4199 0 0 0
29 3 28.348 31.4761 51.4506 0 0 0
30 3 27.1182 31.4586 52.1235 0 0 0
37 6 24.321 32.2327 51.6743 0 0 0
40 6 28.5645 32.101 48.8572 0 0 0
41 6 28.8713 30.9125 46.8297 0 0 0
65 6 28.5983 30.6548 50.8946 0 0 0
66 6 26.5293 30.633 52.0096 0 0 0
35 6 22.201 32.5611 52.5828 0 0 0
1 1 23.3061 33.6913 54.0967 0 0 0
2 1 22.9582 32.3924 53.3535 0 0 0
3 1 24.2825 31.927 52.7265 0 0 0
4 2 25.3749 32.5708 53.5082 0 0 0
5 3 26.6943 32.5496 52.9198 0 0 0
6 3 27.6429 33.5845 53.1303 0 0 0
31 1 24.8082 33.9036 53.8465 0 0 0
32 6 22.7247 34.5362 53.7176 0 0 0
33 6 23.1124 33.5792 55.1672 0 0 0
34 6 22.586 31.6416 54.0567 0 0 0
36 6 24.3489 30.8376 52.7827 0 0 0
38 6 27.4404 34.3543 53.7685 0 0 0
39 6 29.5119 34.3904 52.6272 0 0 0
67 6 24.9437 34.6071 53.0164 0 0 0
68 6 25.2814 34.3123 54.7426 0 0 0
62 7 42.4015 23.9857 37.0376 0 0 0
61 6 40.4195 25.4499 37.4915 0 0 0
17 1 33.1132 28.7172 44.0115 0 0 0
18 1 34.6395 28.4954 43.8853 0 0 0
19 1 35.0208 27.7529 42.5871 0 0 0
20 1 36.5515 27.545 42.4914 0 0 0
21 1 36.9438 26.8017 41.1943 0 0 0
44 6 32.5984 27.7522 44.0179 0 0 0
45 6 32.7528 29.3003 43.1592 0 0 0
46 6 35.1455 29.4658 43.9003 0 0 0
47 6 34.9893 27.9142 44.7441 0 0 0
48 6 34.5197 26.7809 42.5688 0 0 0
49 6 34.6786 28.3354 41.7268 0 0 0
50 6 37.05 28.5189 42.5134 0 0 0
51 6 36.8916 26.9662 43.3554 0 0 0
52 6 36.4417 25.83 41.175 0 0 0
53 6 36.6016 27.3831 40.3332 0 0 0
22 1 38.4729 26.5867 41.0884 0 0 0
23 1 38.8531 25.8411 39.7859 0 0 0
24 1 40.3803 25.6165 39.6617 0 0 0
25 1 40.7474 24.8719 38.358 0 0 0
26 5 42.5285 24.6208 38.2332 0 0 0
54 6 38.9748 27.5585 41.1082 0 0 0
55 6 38.8148 26.0059 41.9501 0 0 0
56 6 38.3457 24.8721 39.7696 0 0 0
57 6 38.5056 26.4241 38.9279 0 0 0
58 6 40.888 26.5852 39.6767 0 0 0
59 6 40.728 25.0324 40.5186 0 0 0
60 6 40.2595 23.8952 38.3344 0 0 0
15 5 31.0384 29.7834 45.512 0 0 0
16 1 32.8041 29.4731 45.3162 0 0 0
43 6 33.1508 28.876 46.1632 0 0 0
9 3 30.4107 32.6596 50.7697 0 0 0
10 4 31.3673 33.3306 51.2327 0 0 0
11 3 30.5939 32.0357 49.5091 0 0 0
14 3 30.9676 30.6686 47.0212 0 0 0
27 3 32.0686 30.9823 47.8542 0 0 0
28 3 31.8855 31.6658 49.0671 0 0 0
42 6 33.3242 30.4338 45.3004 0 0 0
63 6 33.0202 30.7177 47.6097 0 0 0
64 6 32.7103 31.8636 49.6403 0 0 0
76 1 52.3064 28.9949 3.35671 0 0 0
77 1 51.0775 29.8469 2.93649 0 0 0
99 6 51.9591 28.0512 3.78598 0 0 0
101 6 50.5717 29.3416 2.10877 0 0 0
109 6 49.698 29.093 4.43591 0 0 0
74 1 57.8819 29.4982 3.10925 0 0 0
78 1 53.2592 28.6914 2.17017 0 0 0
79 1 56.8868 29.7591 1.947 0 0 0
82 1 54.4924 27.8582 2.60708 0 0 0
83 3 56.5489 28.5152 1.21661 0 0 0
85 3 55.461 27.6704 1.5022 0 0 0
94 6 55.931 29.7282 5.26488 0 0 0
95 6 57.4816 28.7316 3.77589 0 0 0
96 6 58.8075 29.098 2.68434 0 0 0
100 6 52.8703 29.5327 4.12265 0 0 0
103 6 52.7127 28.1404 1.39933 0 0 0
104 6 53.5938 29.6383 1.7375 0 0 0
107 6 54.0744 29.6275 7.05976 0 0 0
111 6 54.9807 28.3349 3.45738 0 0 0
112 6 54.1589 26.8738 2.94576 0 0 0
113 6 57.1647 28.2419 0.445542 0 0 0
116 6 55.3209 26.8629 0.888564 0 0 0
70 4 52.9326 29.3333 9.58703 0 0 0
81 1 50.0324 30.0659 4.06533 0 0 0
84 1 50.5438 30.9219 5.25499 0 0 0
87 1 49.4562 31.1718 6.32295 0 0 0
102 6 51.4182 30.8193 2.56997 0 0 0
110 6 49.1651 30.5672 3.62592 0 0 0
114 6 51.3786 30.4119 5.7385 0 0 0
115 6 50.8995 31.8867 4.88354 0 0 0
119 6 49.1105 30.2244 6.74144 0 0 0
120 6 48.6061 31.6995 5.88647 0 0 0
121 6 49.8652 31.7802 7.13191 0 0 0
71 1 57.085 31.4793 4.68242 0 0 0
72 1 58.2494 30.7603 3.94129 0 0 0
73 1 56.3549 30.6117 5.74359 0 0 0
75 1 55.2055 31.3768 6.45185 0 0 0
89 6 56.3622 31.8511 3.95356 0 0 0
90 6 57.5058 32.3535 5.18762 0 0 0
91 6 58.7248 31.4838 3.27306 0 0 0
92 6 58.9992 30.4707 4.68299 0 0 0
93 6 57.0819 30.2796 6.48978 0 0 0
97 6 55.6112 32.2779 6.91984 0 0 0
98 6 54.4681 31.6825 5.70369 0 0 0
105 6 57.3353 30.4642 1.24233 0 0 0
106 6 55.9755 30.2222 2.32344 0 0 0
69 8 51.6311 31.0941 9.97148 0 0 0
122 7 51.1567 30.5777 10.6557 0 0 0
117 6 52.6365 31.6321 7.53223 0 0 0
80 1 54.499 30.5175 7.53386 0 0 0
86 1 53.3686 31.2913 8.2661 0 0 0
88 3 52.6476 30.5168 9.29643 0 0 0
108 6 55.2399 30.1929 8.27029 0 0 0
118 6 53.795 32.1728 8.75001 0 0 0
ITEM: TIMESTEP
84
ITEM: NUMBER OF ATOMS
122
ITEM: BOX BOUNDS pp pp pp
0.0000000000000000e+00 6.0000000000000000e+01
0.0000000000000000e+00 6.0000000000000000e+01
0.0000000000000000e+00 6.0000000000000000e+01
ITEM: ATOMS id type xu yu zu vx vy vz
7 3 28.8796 33.6032 52.4605 0 0 0
8 3 29.2239 32.5846 51.542 0 0 0
12 3 29.5081 31.7786 48.6327 0 0 0
13 3 29.6879 31.095 47.4197 0 0 0
29 3 28.3482 31.4764 51.4506 0 0 0
30 3 27.1178 31.4586 52.1237 0 0 0
37 6 24.3208 32.2329 51.6744 0 0 0
40 6 28.5644 32.1009 48.8573 0 0 0
41 6 28.8714 30.9126 46.8298 0 0 0
65 6 28.5982 30.6547 50.8948 0 0 0
66 6 26.5292 30.6331 52.0098 0 0 0
35 6 22.2008 32.5612 52.583 0 0 0
1 1 23.3059 33.6913 54.097 0 0 0
2 1 22.958 32.3924 53.3537 0 0 0
3 1 24.2824 31.9271 52.7266 0 0 0
4 2 25.3748 32.5709 53.5083 0 0 0
5 3 26.6943 32.5498 52.9199 0 0 0
6 3 27.6424 33.5846 53.1305 0 0 0
31 1 24.808 33.9036 53.8467 0 0 0
32 6 22.7245 34.5363 53.7179 0 0 0
33 6 23.1122 33.5791 55.1674 0 0 0
34 6 22.5859 31.6416 54.0568 0 0 0
36 6 24.3488 30.8377 52.7827 0 0 0
38 6 27.4403 34.3545 53.7684 0 0 0
39 6 29.5118 34.3907 52.6273 0 0 0
67 6 24.9435 34.6072 53.0166 0 0 0
68 6 25.2812 34.3124 54.7428 0 0 0
62 7 42.4017 23.9856 37.0374 0 0 0
61 6 40.4198 25.4497 37.4914 0 0 0
17 1 33.1133 28.7173 44.0114 0 0 0
18 1 34.6395 28.4953 43.8851 0 0 0
19 1 35.0208 27.7528 42.587 0 0 0
20 1 36.5515 27.5449 42.4912 0 0 0
21 1 36.9439 26.8016 41.1941 0 0 0
44 6 32.5984 27.7523 44.0179 0 0 0
45 6 32.7529 29.3003 43.1591 0 0 0
46 6 35.1456 29.4657 43.9002 0 0 0
47 6 34.9894 27.9141 44.744 0 0 0
48 6 34.5197 26.7808 42.5687 0 0 0
49 6 34.6787 28.3353 41.7267 0 0 0
50 6 37.05 28.5187 42.5132 0 0 0
51 6 36.8916 26.966 43.3552 0 0 0
52 6 36.4418 25.8299 41.1747 0 0 0
53 6 36.6017 27.3829 40.333 0 0 0
22 1 38.473 26.5866 41.0882 0 0 0
23 1 38.8533 25.841 39.7857 0 0 0
24 1 40.3805 25.6164 39.6616 0 0 0
25 1 40.7476 24.8718 38.3579 0 0 0
26 5 42.5288 24.6207 38.2331 0 0 0
54 6 38.9749 27.5584 41.1081 0 0 0
55 6 38.8149 26.0059 41.95 0 0 0
56 6 38.3459 24.872 39.7694 0 0 0
57 6 38.5058 26.424 38.9277 0 0 0
58 6 40.8881 26.5851 39.6765 0 0 0
59 6 40.7282 25.0323 40.5185 0 0 0
60 6 40.2597 23.8951 38.3343 0 0 0
15 5 31.0386 29.7837 45.5119 0 0 0
16 1 32.8042 29.4733 45.3162 0 0 0
43 6 33.1508 28.876 46.1632 0 0 0
9 3 30.4113 32.6601 50.7701 0 0 0
10 4 31.3667 33.3301 51.2327 0 0 0
11 3 30.5935 32.0356 49.5091 0 0 0
14 3 30.9677 30.6688 47.0213 0 0 0
27 3 32.0686 30.9823 47.854 0 0 0
28 3 31.8854 31.666 49.0674 0 0 0
42 6 33.3245 30.4338 45.3004 0 0 0
63 6 33.0203 30.718 47.6098 0 0 0
64 6 32.7103 31.8637 49.6405 0 0 0
76 1 52.3064 28.9949 3.35669 0 0 0
77 1 51.0775 29.8469 2.93649 0 0 0
99 6 51.9591 28.0511 3.7859 0 0 0
101 6 50.5717 29.3416 2.10876 0 0 0
109 6 49.698 29.093 4.43593 0 0 0
74 1 57.8819 29.4982 3.10927 0 0 0
78 1 53.2592 28.6913 2.17013 0 0 0
79 1 56.8868 29.7591 1.94702 0 0 0
82 1 54.4924 27.8581 2.607 0 0 0
83 3 56.5489 28.5152 1.21659 0 0 0
85 3 55.461 27.6704 1.50213 0 0 0
94 6 55.9309 29.7283 5.2649 0 0 0
95 6 57.4816 28.7316 3.77592 0 0 0