ITEM: TIMESTEP
0
ITEM: NUMBER OF ATOMS
24
ITEM: BOX BOUNDS pp pp pp
0.0000000000000000e+00 1.0000000000000000e+01
0.0000000000000000e+00 1.0000000000000000e+01
0.0000000000000000e+00 1.0000000000000000e+01
ITEM: ATOMS id type xu yu zu vx vy vz
1 1 0 0 0 -0.00370416 -0.000802068 0.00378492
2 2 -1.00766 0.237686 -0.523188 -0.00558943 0.000733347 0.00811351
3 2 1.00766 -0.237686 0.523188 -0.00181888 -0.00233748 -0.000543667
4 1 5 0 0 0.000284543 0.00268367 0.00273899
5 2 5.34732 0.500567 -0.987118 0.00310164 5.76137e-05 0.00239852
6 2 4.65268 -0.500567 0.987118 -0.00253255 0.00530973 0.00307946
7 1 0 5 0 0.000420548 0.000540608 -0.00323846
8 2 -0.462609 3.93624 -0.000932781 0.00268284 -0.000442192 -0.00440546
9 2 0.462609 6.06376 0.000932781 -0.00184174 0.00152341 -0.00207146
10 1 5 5 0 -0.00156136 -0.00361499 -0.000264383
11 2 3.91494 5.19904 0.358647 -0.00220334 -0.00718173 -0.000227153
12 2 6.08506 4.80096 -0.358647 -0.00091938 -4.82461e-05 -0.000301614
13 1 0 0 5 -0.00327469 0.00275801 -0.00338927
14 2 -0.172659 0.284978 6.11111 -0.00354379 0.000853658 -0.00294265
15 2 0.172659 -0.284978 3.88889 -0.00300559 0.00466236 -0.00383588
16 1 5 0 5 0.00378317 -0.00237983 0.0010535
17 2 3.91253 0.17356 4.63548 0.0053523 -0.000856113 -0.00290217
18 2 6.08747 -0.17356 5.36452 0.00221404 -0.00390355 0.00500917
19 1 0 5 5 0.00137912 -0.00222181 -0.00303252
20 2 -1.02137 5.26268 4.51689 0.00249753 0.00127356 -0.00349652
21 2 1.02137 4.73732 5.48311 0.000260708 -0.00571718 -0.00256852
22 1 5 5 5 0.00267283 0.00303641 0.00234723
23 2 4.52511 6.01743 5.29139 0.0037826 0.00507536 -0.00296343
24 2 5.47489 3.98257 4.70861 0.00156306 0.000997459 0.00765788
ITEM: TIMESTEP
100
ITEM: NUMBER OF ATOMS
24
ITEM: BOX BOUNDS pp pp pp
0.0000000000000000e+00 1.0000000000000000e+01
0.0000000000000000e+00 1.0000000000000000e+01
0.0000000000000000e+00 1.0000000000000000e+01
ITEM: ATOMS id type xu yu zu vx vy vz
1 1 -0.356813 -0.0805065 0.377449 -0.00339661 -0.000787546 0.00382918
2 2 -1.49114 0.145075 0.466989 -0.00300411 -0.00155436 0.0113213
3 2 0.777513 -0.306088 0.287909 -0.00378911 -2.0734e-05 -0.00366292
4 1 5.02453 0.271841 0.262778 0.000192993 0.00276772 0.00232284
5 2 5.47061 0.510374 -0.781118 -0.000358589 0.00100903 0.00161771
6 2 4.57846 0.0333073 1.30667 0.000744575 0.00452641 0.00302797
7 1 -0.407101 5.20158 -0.293316 0.000437801 0.000372253 -0.00310759
8 2 -0.545278 4.05238 -0.3697 0.00433926 -6.91326e-05 -0.00352456
9 2 -0.268923 6.35079 -0.216933 -0.00346365 0.000813638 -0.00269061
10 1 4.84187 4.6378 -0.0310543 -0.00159501 -0.00362791 -0.000407137
11 2 3.75796 4.40727 0.311892 -0.000761682 -0.00828309 -0.000902591
12 2 5.92577 4.86833 -0.374001 -0.00242834 0.00102728 8.83159e-05
13 1 -0.335483 0.277763 4.67233 -0.00339397 0.00281482 -0.00316566
14 2 -0.594983 0.331119 5.80167 -0.00136691 0.000790042 -0.00287043
15 2 -0.0759824 0.224406 3.54298 -0.00542103 0.00483961 -0.0034609
16 1 5.26802 -0.345231 5.0766 0.00367535 -0.00244289 0.00123122
17 2 4.3052 0.122469 4.62957 0.00508909 -0.000508685 0.000220847
18 2 6.23084 -0.81293 5.52363 0.00226162 -0.00437709 0.00224159
19 1 0.13578 4.77932 4.69784 0.00129636 -0.00218419 -0.00300545
20 2 -0.82151 5.30582 4.30798 0.00313155 0.000654821 -0.00284651
21 2 1.09307 4.25282 5.08771 -0.000538831 -0.00502321 -0.00316439
22 1 4.93207 5.22482 5.08651 0.00278308 0.00308774 0.00230261
23 2 4.64608 6.3232 4.847 0.005049 0.00255687 -0.00283762
24 2 5.21806 4.12643 5.32602 0.000517167 0.00361861 0.00744283
ITEM: TIMESTEP
200
ITEM: NUMBER OF ATOMS
24
ITEM: BOX BOUNDS pp pp pp
0.0000000000000000e+00 1.0000000000000000e+01
0.0000000000000000e+00 1.0000000000000000e+01
0.0000000000000000e+00 1.0000000000000000e+01
ITEM: ATOMS id type xu yu zu vx vy vz
1 1 -0.794692 -0.177877 0.568876 -0.00617272 -0.00171676 -0.00155346
2 2 -1.78278 -0.0822145 1.16899 -0.00713751 -0.00523379 -0.00298614
3 2 0.193391 -0.27354 -0.0312406 -0.00520794 0.00180026 -0.000120792
4 1 5.42124 0.420404 0.589692 0.000290439 0.00292889 0.00130298
5 2 5.74767 0.572205 -0.513033 -0.00141152 0.00217969 0.000696036
6 2 5.09482 0.268604 1.69242 0.0019924 0.0036781 0.00190993
7 1 -0.229895 4.88998 -0.48116 -2.95908e-05 0.000141694 -0.0027346
8 2 0.0158478 3.76103 -0.584489 0.00353571 0.000940476 -0.00298273
9 2 -0.475638 6.01893 -0.377831 -0.00359489 -0.000657087 -0.00248647
10 1 4.69467 4.2714 -0.0892384 -0.00123052 -0.00372124 -0.000767167
11 2 3.75148 3.66799 0.213894 0.00124493 -0.00754858 -0.0017332
12 2 5.63786 4.87481 -0.392371 -0.00370597 0.00010611 0.000198864
13 1 -0.56198 0.591588 4.56078 -0.000205751 0.00403372 0.00244204
14 2 -0.522436 0.443191 5.71057 -0.00113731 0.000377574 0.0020022
15 2 -0.601524 0.739986 3.41099 0.000725804 0.00768987 0.00288188
16 1 5.74228 -0.473136 5.27841 0.00373803 -0.00202839 0.00226006
17 2 4.91509 0.016009 4.62872 0.00383203 -0.000533988 0.00348639
18 2 6.56947 -0.962281 5.9281 0.00364403 -0.0035228 0.00103374
19 1 0.250076 4.55567 4.39476 0.000954459 -0.00234639 -0.00310048
20 2 -0.322504 5.40196 3.84562 0.00304161 -0.000311421 -0.00249422
21 2 0.822657 3.70938 4.94389 -0.00113269 -0.00438137 -0.00370674
22 1 5.55021 5.60576 5.45857 0.00265566 0.00270847 0.00215063
23 2 5.46076 6.50623 4.7328 0.00405031 -0.000873905 -0.00246592
24 2 5.63966 4.70529 6.18435 0.00126101 0.00629085 0.00676719
ITEM: TIMESTEP
300
ITEM: NUMBER OF ATOMS
24
ITEM: BOX BOUNDS pp pp pp
0.0000000000000000e+00 1.0000000000000000e+01
0.0000000000000000e+00 1.0000000000000000e+01
0.0000000000000000e+00 1.0000000000000000e+01
ITEM: ATOMS id type xu yu zu vx vy vz
1 1 -1.26847 -0.6417 0.591692 -0.00508198 -0.00253339 -0.00180442
2 2 -2.36202 -0.931325 0.848312 -0.00470553 -0.0062292 -0.00437136
3 2 -0.174912 -0.352076 0.335073 -0.00545843 0.00116241 0.000762515
4 1 5.08922 0.777258 0.515548 0.000870936 0.000251398 0.000170198
5 2 5.28324 0.626787 -0.618169 0.000170369 -0.00258906 -3.1143e-07
6 2 4.89519 0.927729 1.64926 0.0015715 0.00309185 0.000340708
7 1 -0.0226544 4.89416 -1.3292 -0.00063096 0.000758998 -0.00244901
8 2 0.636407 3.95229 -1.48453 0.00218633 0.00241875 -0.00304949
9 2 -0.681716 5.83602 -1.17388 -0.00344825 -0.000900749 -0.00184853
10 1 4.5616 3.98566 -0.143283 -0.00228152 -0.000592656 9.77765e-05
11 2 3.87585 3.06111 0.000106631 -0.00180899 -0.00116499 -0.00133269
12 2 5.24735 4.9102 -0.286673 -0.00275405 -2.03177e-05 0.00152824
13 1 -0.733229 0.915098 4.60447 -0.000936587 0.00191566 0.00154902
14 2 -0.695503 0.479553 5.67893 0.00175036 0.00271117 0.00181881
15 2 -0.770954 1.35064 3.53 -0.00362353 0.00112015 0.00127922
16 1 6.10942 -0.633362 5.577 0.00335991 -0.00138173 0.00351663
17 2 5.27629 0.0210992 5.10458 0.00356844 -1.88948e-05 0.00514815
18 2 6.94254 -1.28782 6.04942 0.00315138 -0.00274457 0.0018851
19 1 0.361852 4.36089 4.10138 0.0024543 0.000114296 -0.00203846
20 2 -0.133003 5.31023 3.65476 0.00198046 -0.00104421 -0.00397598
21 2 0.856706 3.41155 4.548 0.00292813 0.0012728 -0.000100942
22 1 5.78812 5.80999 5.6226 0.0022459 0.00146742 0.000958274
23 2 5.76273 6.18885 4.52651 0.00222805 -0.00471956 -0.0011798
24 2 5.8135 5.43114 6.7187 0.00226376 0.0076544 0.00309634
ITEM: TIMESTEP
400
ITEM: NUMBER OF ATOMS
24
ITEM: BOX BOUNDS pp pp pp
0.0000000000000000e+00 1.0000000000000000e+01
0.0000000000000000e+00 1.0000000000000000e+01
0.0000000000000000e+00 1.0000000000000000e+01
ITEM: ATOMS id type xu yu zu vx vy vz
1 1 -1.74632 -0.748423 0.242182 -0.00243109 -0.00454541 -0.000902418
2 2 -2.65819 -1.45998 0.330391 0.000752424 -0.00871293 -0.00161077
3 2 -0.834448 -0.0368661 0.153973 -0.0056146 -0.000377887 -0.00019407
4 1 4.91444 0.704378 0.582912 -9.72176e-05 -0.0009803 -0.00107578
5 2 4.97622 0.442707 -0.545499 -0.00204773 -0.00282129 -0.000755667
6 2 4.85265 0.966049 1.71132 0.00185329 0.000860688 -0.0013959
7 1 -0.0473691 5.23757 -1.10584 -0.000987978 0.0018154 -0.0023263
8 2 0.755571 4.43061 -1.32876 0.000917195 0.00399225 -0.00334418
9 2 -0.850309 6.04454 -0.882917 -0.00289315 -0.000361452 -0.00130842
10 1 4.24773 4.10915 -0.0779486 -0.00326404 0.0018697 0.00100891
11 2 3.52112 3.21648 -0.222139 -0.00417572 0.00279235 -0.000912498
12 2 4.97433 5.00181 0.0662419 -0.00235236 0.000947038 0.00293031
13 1 -0.462057 0.931959 5.13166 -0.00199436 0.000319245 0.000809201
14 2 0.0338823 0.733061 6.16127 0.0020745 0.00419545 -0.000583376
15 2 -0.957996 1.13086 4.10206 -0.00606323 -0.00355696 0.00220178
16 1 6.43298 -0.722547 5.94034 0.00358884 0.000363393 0.00350444
17 2 5.61701 0.0712651 5.71753 0.00326684 0.000859941 0.00645265
18 2 7.24896 -1.51636 6.16316 0.00391084 -0.000133155 0.000556236
19 1 0.936005 4.35984 3.64984 0.00354005 0.00167212 -0.00170198
20 2 0.180686 4.88986 2.94687 0.00273045 -0.00258968 -0.00443405
21 2 1.69132 3.82982 4.35281 0.00434966 0.00593391 0.00103009
22 1 5.88695 5.76837 6.02996 0.00164579 -0.000514142 0.000683926
23 2 5.85821 5.59334 4.8836 0.00238177 -0.00428518 0.00124125
24 2 5.91568 5.9434 7.17632 0.000909819 0.0032569 0.000126599
ITEM: TIMESTEP
500
ITEM: NUMBER OF ATOMS
24
ITEM: BOX BOUNDS pp pp pp
0.0000000000000000e+00 1.0000000000000000e+01
0.0000000000000000e+00 1.0000000000000000e+01
0.0000000000000000e+00 1.0000000000000000e+01
ITEM: ATOMS id type xu yu zu vx vy vz
1 1 -2.01565 -1.17827 0.203403 -0.0034194 -0.00366025 0.000267244
2 2 -2.64674 -2.14223 0.337951 -0.00178821 -0.00444858 0.00227041
3 2 -1.38455 -0.214312 0.0688552 -0.00505059 -0.00287193 -0.00173592
4 1 5.11235 0.59483 0.346554 -0.000435731 -0.000962143 -0.000847571
5 2 5.01914 0.264941 -0.761636 -0.00168895 -0.00249448 -0.000148612
6 2 5.20556 0.924719 1.45474 0.000817492 0.000570192 -0.00154653
7 1 -0.121368 5.42169 -1.37757 -0.000211692 0.00156183 -0.00340457
8 2 0.83507 4.85199 -1.70355 0.00110042 0.00424732 -0.0042481
9 2 -1.07781 5.9914 -1.0516 -0.00152381 -0.00112365 -0.00256103
10 1 3.96103 4.27704 0.0592958 -0.00243716 0.00139024 0.00179687
11 2 3.25144 3.38725 -0.165091 -0.00139001 0.000582608 0.00105183
12 2 4.67062 5.16683 0.283683 -0.00348432 0.00219786 0.0025419
13 1 -0.91872 1.06906 4.97381 -0.00143162 0.00066524 0.000230048
14 2 -0.15564 1.38341 5.78898 0.000531634 0.00472663 -0.00317389
15 2 -1.6818 0.754723 4.15865 -0.00339488 -0.00339615 0.00363399
16 1 7.0805 -0.871202 6.28967 0.00380581 0.00154364 0.00297097
17 2 6.16586 -0.168729 6.41437 0.00306163 9.44402e-05 0.00567641
18 2 7.99515 -1.57368 6.16498 0.00455 0.00299284 0.000265534
19 1 1.18311 4.34579 3.55278 0.00368534 0.00181586 -0.00221884
20 2 0.594857 4.57118 2.57874 0.00466357 -0.00309059 -0.00362023
21 2 1.77137 4.12039 4.52682 0.00270712 0.00672231 -0.000817457
22 1 6.17262 5.78312 5.64794 0.000444453 -0.00235441 0.00120585
23 2 6.35747 5.41752 4.56268 0.00346563 -0.00366486 0.00216216
24 2 5.98778 6.14871 6.73319 -0.00257673 -0.00104396 0.000249539
ITEM: TIMESTEP
600
ITEM: NUMBER OF ATOMS
24
ITEM: BOX BOUNDS pp pp pp
0.0000000000000000e+00 1.0000000000000000e+01
0.0000000000000000e+00 1.0000000000000000e+01
0.0000000000000000e+00 1.0000000000000000e+01
ITEM: ATOMS id type xu yu zu vx vy vz
1 1 -2.42988 -1.50958 0.292939 -0.00457004 -0.00333809 0.00125386
2 2 -2.97393 -2.3916 0.814141 -0.00343967 -0.0010271 0.00634462
3 2 -1.88583 -0.62756 -0.228263 -0.00570041 -0.00564908 -0.0038369
4 1 5.01421 0.513811 0.354514 -0.00147537 -0.000750503 0.000961293
5 2 4.78394 -0.119629 -0.589589 -0.00289499 -0.00366866 0.00326546
6 2 5.24448 1.14725 1.29862 -5.57535e-05 0.00216765 -0.00134287
7 1 -0.00205233 5.66169 -1.49984 0.00120428 0.00112808 -0.00437085
8 2 1.08106 5.3866 -1.81095 0.0023128 0.00421495 -0.0032469
9 2 -1.08516 5.93678 -1.18872 9.57558e-05 -0.0019588 -0.0054948
10 1 3.73136 4.39288 0.256207 -0.00239563 0.0010531 0.00187115
11 2 3.15595 3.41751 0.00488025 0.000778391 -0.000649611 0.00138745
12 2 4.30677 5.36824 0.507535 -0.00556964 0.00275581 0.00235485
13 1 -0.98536 1.31533 4.79363 -8.75293e-05 0.00390906 -0.00349894
14 2 -0.264973 1.89382 5.49505 -0.000308147 0.00556361 -0.00477622
15 2 -1.70575 0.736842 4.09221 0.000133089 0.00225451 -0.00222167
16 1 7.08768 -0.711591 6.40535 0.00283274 -0.00166194 0.00455997
17 2 6.16765 -0.00938736 6.48322 0.00449842 0.000507482 0.00154833
18 2 8.0077 -1.41379 6.32748 0.00116707 -0.00383137 0.00757161
19 1 1.45579 4.87048 3.51684 0.00408487 0.00189936 -0.0023001
20 2 0.873005 4.48517 2.59083 0.00648223 -0.00314538 -0.00158268
21 2 2.03857 5.25579 4.44286 0.0016875 0.00694411 -0.00301752
22 1 6.12719 5.47585 5.91758 0.000406682 -0.00223906 0.00152362
23 2 6.71245 4.93913 5.07199 0.00382516 -0.00378679 0.00438604
24 2 5.54193 6.01256 6.76316 -0.00301179 -0.000691335 -0.0013388
ITEM: TIMESTEP
700
ITEM: NUMBER OF ATOMS
24
ITEM: BOX BOUNDS pp pp pp
0.0000000000000000e+00 1.0000000000000000e+01
0.0000000000000000e+00 1.0000000000000000e+01
0.0000000000000000e+00 1.0000000000000000e+01
ITEM: ATOMS id type xu yu zu vx vy vz
1 1 -2.88445 -1.85949 0.548211 -0.00447115 -0.00358341 0.00533409
2 2 -3.23592 -2.51021 1.44187 -0.00255416 -0.00279813 0.00665985
3 2 -2.53297 -1.20877 -0.345448 -0.00638813 -0.0043687 0.00400833
4 1 5.00361 0.206386 0.489809 -0.00165856 -0.000410963 0.00131671
5 2 4.62494 -0.682407 -0.152262 -0.00369227 -0.00199823 0.00471332
6 2 5.38228 1.09518 1.13188 0.000375156 0.0011763 -0.00207989
7 1 0.394368 5.39064 -2.00953 0.00115232 0.000319744 -0.0036346
8 2 1.54037 5.49118 -2.1584 0.00113793 0.00436775 -0.00176716
9 2 -0.751637 5.2901 -1.86066 0.00116671 -0.00372827 -0.00550204
10 1 3.65596 4.55319 0.639058 -0.00272575 0.0011233 0.000428737
11 2 3.42127 3.48833 0.243322 0.00156766 0.00117007 -0.00177093
12 2 3.89065 5.61804 1.03479 -0.00701915 0.00107654 0.00262841
13 1 -0.983891 1.75069 4.4072 7.22309e-05 0.00476952 -0.00400154
14 2 -0.243481 2.53741 4.82967 -0.00149961 0.00734289 -0.00603886
15 2 -1.7243 0.963982 3.98474 0.00164407 0.00219615 -0.00196421
16 1 7.41207 -0.788967 6.9623 0.00263008 -0.00199612 7.25652e-05
17 2 6.79695 0.194461 6.97214 0.00592606 2.79599e-05 0.00382053
18 2 8.02719 -1.7724 6.95245 -0.000665902 -0.00402021 -0.0036754
19 1 1.86175 5.06243 3.30494 0.00368972 0.0019379 -0.00161032
20 2 1.6422 4.32052 2.44066 0.00665078 -0.0017913 0.00144087
21 2 2.08131 5.80433 4.16921 0.00072866 0.0056671 -0.00466152
22 1 6.20747 5.25783 6.10284 0.0013111 -0.00215997 0.00209436
23 2 7.01785 4.60683 5.58798 0.00326286 -0.00318719 0.00646525
24 2 5.39709 5.90883 6.6177 -0.000640656 -0.00113275 -0.00227653
ITEM: TIMESTEP
800
ITEM: NUMBER OF ATOMS
24
ITEM: BOX BOUNDS pp pp pp
0.0000000000000000e+00 1.0000000000000000e+01
0.0000000000000000e+00 1.0000000000000000e+01
0.0000000000000000e+00 1.0000000000000000e+01
ITEM: ATOMS id type xu yu zu vx vy vz
1 1 -3.27871 -2.27943 1.15902 -0.00365842 -0.00469669 0.00617789
2 2 -3.51998 -2.87967 2.12189 -0.00306603 -0.00409406 0.006702
3 2 -3.03743 -1.6792 0.196158 -0.00425081 -0.00529932 0.00565377
4 1 4.67375 0.443812 0.618974 -0.0017187 0.000149098 0.00164306
5 2 4.13269 -0.505373 0.22923 -0.0049006 0.00137845 0.00513003
6 2 5.21481 1.393 1.00872 0.0014632 -0.00108026 -0.0018439
7 1 0.231084 5.64235 -2.44655 0.00250746 0.000347569 -0.00131974
8 2 1.22854 6.21762 -2.58706 0.000977553 0.00350193 -0.00282202
9 2 -0.76637 5.06707 -2.30603 0.00403737 -0.00280679 0.000182546
10 1 3.1329 4.32306 0.262168 -0.00105362 0.00272863 -0.00406839
11 2 3.24185 3.26588 -0.2027 0.000247523 0.00340424 -0.00514295
12 2 3.02395 5.38024 0.727035 -0.00235476 0.00205303 -0.00299384
13 1 -0.980807 2.25267 4.04069 -0.000272383 0.00514793 -0.00308133
14 2 -0.43066 3.25778 4.22149 -0.00252097 0.0068571 -0.00574092
15 2 -1.53095 1.24756 3.85989 0.0019762 0.00343875 -0.00042174
16 1 7.65538 -0.951554 6.8683 0.00230196 -0.00145047 -0.00117112
17 2 7.43691 0.101142 7.30385 0.00659302 -0.00207675 0.00249493
18 2 7.87385 -2.00425 6.43276 -0.00198911 -0.000824204 -0.00483718
19 1 2.09757 5.19728 3.3312 0.00180657 0.00097504 0.00158892
20 2 2.24044 4.07105 3.09287 0.00425117 -0.000563775 0.00835839
21 2 1.95471 6.3235 3.56953 -0.000638019 0.00251386 -0.00518054
22 1 6.30815 5.0005 6.2369 8.71304e-05 -0.0032011 0.000230711
23 2 7.116 4.20451 5.99318 -0.00211624 -0.00554254 0.000574471
24 2 5.50031 5.79648 6.48062 0.0022905 -0.000859648 -0.00011305
ITEM: TIMESTEP
900
ITEM: NUMBER OF ATOMS
24
ITEM: BOX BOUNDS pp pp pp
0.0000000000000000e+00 1.0000000000000000e+01
0.0000000000000000e+00 1.0000000000000000e+01
0.0000000000000000e+00 1.0000000000000000e+01
ITEM: ATOMS id type xu yu zu vx vy vz
1 1 -3.65056 -2.78689 1.77341 -0.00402358 -0.00530146 0.00617529
2 2 -3.85635 -3.34061 2.77174 -0.00368992 -0.00503224 0.00638895
3 2 -3.44477 -2.23318 0.775092 -0.00435725 -0.00557068 0.00596164
4 1 4.51009 0.495802 0.778574 -0.00143499 0.000730905 0.00152003
5 2 3.59988 -0.217928 0.866293 -0.00304506 0.0030279 0.00470597
6 2 5.42031 1.20953 0.690854 0.00017508 -0.00156609 -0.00166592
7 1 0.0857554 5.71499 -2.52915 0.00241957 0.000409797 -0.00120717
8 2 0.962958 6.39119 -2.87392 0.000626336 0.00167973 -0.00343906
9 2 -0.791447 5.03879 -2.18437 0.00421281 -0.000860138 0.00102473
10 1 3.22103 4.94189 -0.28035 -0.000239401 0.00218277 -0.0052851
11 2 3.41015 3.99723 -0.926467 -0.000214883 0.00335124 -0.00698628
12 2 3.03191 5.88654 0.365767 -0.000263918 0.0010143 -0.00358392
13 1 -1.03995 2.77793 3.77316 -0.000713689 0.00527665 -0.00233205
14 2 -0.741266 3.89022 3.63464 -0.00330111 0.00553044 -0.00584244
15 2 -1.33864 1.66563 3.91168 0.00187373 0.00502285 0.00117834
16 1 7.90667 -1.08845 6.75046 0.00284834 -0.00125388 -0.00122924
17 2 8.04657 -0.180447 7.45867 0.0054754 -0.00324412 0.000803504
18 2 7.76678 -1.99645 6.04224 0.000221285 0.000736348 -0.00326199
19 1 2.26592 5.20438 3.71401 0.0021017 0.00183129 0.00244857
20 2 2.67903 4.15763 3.99554 0.00643721 0.00464558 0.00655044
21 2 1.85281 6.25113 3.43247 -0.0022338 -0.000983008 -0.00165329
22 1 6.38006 4.97559 6.56543 -0.000957958 -0.00387606 -9.03282e-05
23 2 6.87315 3.98024 6.23117 -0.00415971 -0.0048316 -0.00196816
24 2 5.88696 5.97095 6.89968 0.00224379 -0.00292053 0.00178751
ITEM: TIMESTEP
1000
ITEM: NUMBER OF ATOMS
24
ITEM: BOX BOUNDS pp pp pp
0.0000000000000000e+00 1.0000000000000000e+01
0.0000000000000000e+00 1.0000000000000000e+01
0.0000000000000000e+00 1.0000000000000000e+01
ITEM: ATOMS id type xu yu zu vx vy vz
1 1 -3.7912 -3.63466 2.46921 -0.00428417 -0.00544482 0.00631851
2 2 -3.90247 -3.97111 3.57375 -0.00381337 -0.00614884 0.00600304
3 2 -3.67993 -3.29821 1.36467 -0.00475498 -0.0047408 0.00663397
4 1 4.38717 0.573695 0.92591 -0.0010231 0.000738112 0.00145792
5 2 3.38962 0.0926855 1.27106 -0.00104051 0.00284822 0.00434831
6 2 5.38472 1.0547 0.580762 -0.00100569 -0.00137199 -0.00143246
7 1 0.69748 5.72298 -2.71993 0.00169741 0.000316486 -0.00211544
8 2 1.39964 6.50892 -3.20457 2.96314e-05 0.000498644 -0.00411316
9 2 -0.00467643 4.93705 -2.23529 0.00336518 0.000134328 -0.000117733
10 1 3.02852 4.83113 -0.606921 0.000972849 0.00174698 -0.00540866
11 2 3.13968 4.03533 -1.44355 -0.000739987 0.00359508 -0.00739413
12 2 2.91737 5.62693 0.229707 0.00268568 -0.000101112 -0.0034232
13 1 -1.11419 3.26503 3.57362 -0.000846719 0.00436634 -0.00178261
14 2 -1.07242 4.34005 3.13982 -0.00382568 0.00359083 -0.00399132
15 2 -1.15597 2.19001 4.00742 0.00213224 0.00514186 0.000426107
16 1 8.21633 -1.2021 6.60904 0.00320865 -0.00110009 -0.00162969
17 2 8.54765 -0.519043 7.48611 0.00464933 -0.00355041 -0.000265636
18 2 7.885 -1.88516 5.73197 0.00176798 0.00135022 -0.00299374
19 1 2.50511 5.55761 3.81475 0.00172023 0.00232955 0.00338436
20 2 3.22069 4.81345 4.34368 0.00371638 0.00668528 0.00570302
21 2 1.78954 6.30177 3.28581 -0.000275909 -0.00202619 0.0010657
22 1 6.13113 4.27961 6.22097 -0.00144515 -0.00295256 -0.000224387
23 2 6.22193 3.32433 5.56921 -0.00426006 -0.00163814 -0.00334795
24 2 6.04033 5.2349 6.87272 0.00136976 -0.00426697 0.00289918
ITEM: TIMESTEP
1100
ITEM: NUMBER OF ATOMS
24
ITEM: BOX BOUNDS pp pp pp
0.0000000000000000e+00 1.0000000000000000e+01
0.0000000000000000e+00 1.0000000000000000e+01
0.0000000000000000e+00 1.0000000000000000e+01
ITEM: ATOMS id type xu yu zu vx vy vz
1 1 -4.23292 -3.76255 2.91785 0.00132003 -0.00242062 0.00360853
2 2 -4.0375 -4.41682 3.85558 0.00764575 -0.00256578 0.00228701
3 2 -4.42834 -3.10828 1.98012 -0.00500569 -0.00227545 0.00493006
4 1 3.84421 0.597057 1.25523 -0.000761496 0.000467653 0.001548
5 2 2.91288 0.309456 1.88412 0.000542815 0.00228714 0.00431166
6 2 4.77555 0.884658 0.626339 -0.00206581 -0.00135183 -0.00121566
7 1 0.737082 5.80774 -2.90873 -0.00219202 0.00206906 -0.00104386
8 2 1.20719 6.6315 -3.57658 -0.00644591 0.00439209 -0.00117293
9 2 0.266972 4.98399 -2.24088 0.00206188 -0.00025396 -0.000914799
10 1 3.38642 5.25757 -1.29574 0.00167256 0.000269898 -0.00318582
11 2 3.20525 4.62239 -2.24933 -0.00151386 0.00095983 -0.00311211
12 2 3.5676 5.89275 -0.342155 0.00485898 -0.000420034 -0.00325953
13 1 -1.06747 3.45992 3.75467 -0.00108173 0.00382551 -0.00185547
14 2 -1.41115 4.38885 3.15087 -0.0051549 0.00132477 -0.00338436
15 2 -0.723786 2.53099 4.35847 0.00299143 0.00632625 -0.000326575
16 1 8.53486 -1.32347 6.42099 0.0031261 -0.00137468 -0.00213167
17 2 9.04909 -0.976793 7.40129 0.00446179 -0.00393841 -0.00163152
18 2 8.02063 -1.67016 5.44069 0.00179041 0.00118905 -0.00263182
19 1 2.5013 5.68045 4.21193 -0.00115206 -0.00018844 0.0032334
20 2 3.13625 5.30318 5.10641 -0.00420552 0.000995481 0.00590028
21 2 1.86634 6.05773 3.31745 0.00190141 -0.00137236 0.000566526
22 1 6.02088 3.91021 6.38214 -0.000931392 -0.00264838 -0.000173115
23 2 5.86969 3.11899 5.54745 -0.0053776 -0.00105784 -0.000875441
24 2 6.17208 4.70143 7.21683 0.00351481 -0.00423892 0.000529211
ITEM: TIMESTEP
1200
ITEM: NUMBER OF ATOMS
24
ITEM: BOX BOUNDS pp pp pp
0.0000000000000000e+00 1.0000000000000000e+01
0.0000000000000000e+00 1.0000000000000000e+01
0.0000000000000000e+00 1.0000000000000000e+01
ITEM: ATOMS id type xu yu zu vx vy vz
1 1 -4.18595 -3.75109 3.34646 -0.000218009 0.00165463 0.00526684
2 2 -3.5981 -4.23619 4.22093 0.00238388 0.00436615 0.00498333
3 2 -4.7738 -3.26599 2.47198 -0.0028199 -0.0010569 0.00555034
4 1 4.22806 0.665071 1.23583 -0.000698205 0.000136924 0.00164145
5 2 3.48374 0.553084 2.11846 0.00167183 0.00177038 0.00384733
6 2 4.97238 0.777059 0.353192 -0.00306824 -0.00149653 -0.000564438
7 1 0.375773 5.93004 -2.97193 -0.00228219 -0.00237851 -0.00109413
8 2 0.478188 6.73481 -3.80106 -0.00105438 -0.00496131 -0.00418427
9 2 0.273357 5.12527 -2.1428 -0.00351 0.000204297 0.00199602
10 1 3.78315 4.86177 -1.11856 0.00363752 -0.00193151 0.00199518
11 2 3.40261 3.99942 -1.79469 0.00300515 -0.00551928 0.00692701
12 2 4.16369 5.72411 -0.442436 0.00426989 0.00165627 -0.00293665
13 1 -0.923299 4.24426 3.28512 0.00177453 0.00300386 -0.00424237
14 2 -1.41752 4.70814 2.34377 0.00267343 -0.00418655 -0.00825763
15 2 -0.429075 3.78037 4.22648 0.000875637 0.0101943 -0.000227114
16 1 8.70197 -1.30476 6.23395 -0.00138141 0.00373631 -0.00118946
17 2 9.15668 -0.996457 7.25561 -0.00412143 0.00516483 -0.000401027
18 2 8.24725 -1.61307 5.2123 0.00135861 0.00230779 -0.00197789
19 1 2.48493 5.6685 4.11307 0.000127872 0.000169766 -0.00321327
20 2 3.17579 5.41337 5.00929 0.00282084 0.00236035 -0.00466557
21 2 1.79406 5.92364 3.21686 -0.0025651 -0.00202081 -0.00176096
22 1 5.91105 3.65856 6.22942 -0.000960115 -0.00439148 0.000835761
23 2 5.36142 2.93547 5.50786 -0.00432752 -0.00349313 0.00272764
24 2 6.46067 4.38166 6.95098 0.00240729 -0.00528982 -0.00105612
ITEM: TIMESTEP
1300
ITEM: NUMBER OF ATOMS
24
ITEM: BOX BOUNDS pp pp pp
0.0000000000000000e+00 1.0000000000000000e+01
0.0000000000000000e+00 1.0000000000000000e+01
0.0000000000000000e+00 1.0000000000000000e+01
ITEM: ATOMS id type xu yu zu vx vy vz
1 1 -4.12329 -3.56167 3.7895 0.00221444 0.0028042 0.00259827
2 2 -3.31668 -3.8825 4.55896 0.00178768 0.00221217 0.00279719
3 2 -4.92989 -3.24083 3.02005 0.0026412 0.00339624 0.00239935
4 1 4.15909 0.667758 1.39248 -0.0006633 -6.06912e-05 0.00143856
5 2 3.68187 0.706258 2.44907 0.00220693 0.00136056 0.00268315
6 2 4.63631 0.629257 0.335892 -0.00353353 -0.00148195 0.000193982
7 1 0.1978 5.5649 -3.06283 -0.00178872 -0.00369377 -0.000384358
8 2 0.496312 6.02692 -4.08411 -0.000202698 -0.00793378 -0.00195079
9 2 -0.100711 5.10287 -2.04154 -0.00337474 0.000546244 0.00118207
10 1 3.36418 5.10873 -1.2644 0.00411629 -0.00152109 0.00191285
11 2 3.05375 4.00893 -1.46356 0.00560478 -0.00262819 0.00754367
12 2 3.67462 6.20854 -1.06524 0.0026278 -0.00041398 -0.00371796
13 1 -1.0254 4.29374 2.72706 0.000492852 0.00219563 -0.00273428
14 2 -1.31326 4.03817 1.63279 0.00444338 -0.0027652 -0.00266481
15 2 -0.737544 4.5493 3.82133 -0.00345768 0.00715647 -0.00280375
16 1 8.47627 -0.822064 6.09504 -0.00242081 0.00507928 -0.00169172
17 2 8.52238 -0.502947 7.20933 -0.00488661 0.0048423 -0.00120853
18 2 8.43017 -1.14118 4.98075 4.49835e-05 0.00531625 -0.00217492
19 1 2.3009 6.12981 3.84994 -0.000972646 -0.000466434 -0.0022781
20 2 3.15238 6.13328 4.6377 -0.0036092 -0.000395452 0.000317993
21 2 1.44942 6.12635 3.06218 0.0016639 -0.000537416 -0.00487419
22 1 5.8141 3.2171 6.33547 -0.000978107 -0.00433714 0.00113878
23 2 5.02338 2.64407 5.70938 -0.00199469 -0.00278528 0.00100232
24 2 6.60482 3.79014 6.96156 3.84778e-05 -0.005889 0.00127523
ITEM: TIMESTEP
1400
ITEM: NUMBER OF ATOMS
24
ITEM: BOX BOUNDS pp pp pp
0.0000000000000000e+00 1.0000000000000000e+01
0.0000000000000000e+00 1.0000000000000000e+01
0.0000000000000000e+00 1.0000000000000000e+01
ITEM: ATOMS id type xu yu zu vx vy vz
1 1 -3.87599 -3.13956 3.64708 0.00155199 0.00412624 0.00301658
2 2 -3.39342 -3.59677 4.5977 -0.00354534 0.00348243 0.00529454
3 2 -4.35857 -2.68236 2.69645 0.00664933 0.00477005 0.000738624
4 1 4.1632 0.837174 1.3714 -0.000504136 -0.00037472 0.00096216
5 2 3.97852 1.03225 2.49987 0.00248391 0.00151851 0.00112389
6 2 4.34787 0.642096 0.242937 -0.00349218 -0.00226794 0.000800435
7 1 -0.0478651 5.2719 -2.95692 -0.00364169 -0.00233126 0.00231915
8 2 0.418508 5.48557 -3.99732 -0.00305486 -0.0040922 0.00222056
9 2 -0.514238 5.05823 -1.91651 -0.00422851 -0.000570319 0.00241775
10 1 4.29895 4.48922 -0.938804 0.00403567 -0.000956291 0.00217526
11 2 4.23861 3.43944 -0.448977 0.00628596 0.000993219 0.00770278
12 2 4.35929 5.53899 -1.42863 0.00178537 -0.0029058 -0.00335225
13 1 -1.28428 4.27065 1.99851 0.000227175 -7.74604e-05 -0.00465952
14 2 -1.24471 3.97446 0.877657 0.00511416 -0.00188925 -0.00280733
15 2 -1.32385 4.56684 3.11936 -0.00465981 0.00173433 -0.00651171
16 1 8.22215 -0.32143 5.90496 -0.00272328 0.00488426 -0.00204954
17 2 8.18034 -0.00470928 7.0201 -0.00461911 0.00405268 -0.00188443
18 2 8.26396 -0.638151 4.78982 -0.000827456 0.00571585 -0.00221464
19 1 2.4516 5.5697 3.57862 0.00172297 -0.00131914 -0.00269017
20 2 2.90634 5.42003 4.63522 0.000377 -0.00227946 -0.00224693
21 2 1.99686 5.71936 2.52202 0.00306894 -0.000358827 -0.00313342
22 1 5.27024 2.67023 6.23856 -0.0006687 -0.00395163 0.000926072
23 2 4.42238 2.25589 5.56398 -0.000979534 -0.00246516 0.000403722
24 2 6.1181 3.08458 6.91313 -0.000357865 -0.00543809 0.00144842
ITEM: TIMESTEP
1500
ITEM: NUMBER OF ATOMS
24
ITEM: BOX BOUNDS pp pp pp
0.0000000000000000e+00 1.0000000000000000e+01
0.0000000000000000e+00 1.0000000000000000e+01
0.0000000000000000e+00 1.0000000000000000e+01
ITEM: ATOMS id type xu yu zu vx vy vz
1 1 -3.46287 -2.89357 4.54516 0.00161839 0.00356252 0.00307367
2 2 -3.44823 -3.32328 5.62253 -0.00153018 0.00455292 0.00351147
3 2 -3.47751 -2.46385 3.46778 0.00476696 0.00257212 0.00263587
4 1 3.91931 0.509492 1.43362 -8.09526e-05 -0.000306868 0.000344522
5 2 3.94165 0.872698 2.53507 0.00319164 0.00139849 -0.000654688
6 2 3.89697 0.146286 0.332179 -0.00335355 -0.00201222 0.00134373
7 1 -0.484446 5.05978 -2.72259 -0.00493369 -0.00191706 0.00219203
8 2 0.0655311 5.15572 -3.73941 -0.005064 -0.00471313 0.00214014
9 2 -1.03442 4.96383 -1.70577 -0.00480338 0.000879001 0.00224393
10 1 5.1092 4.44124 -0.373605 0.00410377 -0.000960527 0.00273737
11 2 5.18493 3.77247 0.571173 0.00662387 0.00462319 0.0065901
12 2 5.03348 5.11002 -1.31838 0.00158367 -0.00654424 -0.00111536
13 1 -0.991715 4.36774 1.89153 0.000313572 -0.000274426 -0.00474968
14 2 -0.299554 3.7005 1.24245 0.00486947 -0.00099902 0.000853488
15 2 -1.68388 5.03498 2.5406 -0.00424233 0.000450168 -0.0103529
16 1 7.94116 0.12149 5.69235 -0.00254456 0.00345622 -0.0022121
17 2 7.7303 0.349136 6.81008 -0.00395411 0.00194994 -0.00217124
18 2 8.15202 -0.106156 4.57462 -0.001135 0.00496251 -0.00225297
19 1 2.71204 5.18479 3.67916 0.00269946 -0.00152761 -0.00264185
20 2 3.21699 4.98958 4.70508 0.00432821 -0.00153229 -0.00344441
21 2 2.20708 5.38 2.65324 0.00107071 -0.00152294 -0.0018393
22 1 5.65545 2.47105 6.53773 -0.00117599 -0.00203224 0.00125604
23 2 4.80804 2.1138 5.83071 -0.000466664 -0.00337672 0.00108522
24 2 6.50285 2.8283 7.24475 -0.00188532 -0.000687768 0.00142686
ITEM: TIMESTEP
1600
ITEM: NUMBER OF ATOMS
24
ITEM: BOX BOUNDS pp pp pp
0.0000000000000000e+00 1.0000000000000000e+01
0.0000000000000000e+00 1.0000000000000000e+01
0.0000000000000000e+00 1.0000000000000000e+01
ITEM: ATOMS id type xu yu zu vx vy vz
1 1 -3.88753 -2.56564 4.47786 0.000925008 0.00239734 0.00200077
2 2 -3.95912 -2.86759 5.59558 0.00184336 0.00410592 0.00249893
3 2 -3.81595 -2.2637 3.36013 6.65334e-06 0.000688755 0.00150261
4 1 4.11453 0.187565 1.42491 0.000555215 -8.58647e-05 0.000285498
5 2 4.56421 0.694994 2.36614 0.00361018 0.000683661 -0.00158892
6 2 3.66484 -0.319863 0.48369 -0.00249975 -0.00085539 0.00215992
7 1 -1.03278 4.86406 -2.48714 -0.00603776 -0.00213563 0.00234432
8 2 -0.624944 4.57039 -3.53262 -0.00737125 -0.0048498 0.00258652
9 2 -1.44061 5.15773 -1.44166 -0.00470427 0.000578543 0.00210211
10 1 5.19341 4.70691 -0.313085 0.000430103 0.00130477 0.00402189
11 2 5.52262 4.51766 0.783003 0.00294924 0.00356119 0.00348842
12 2 4.8642 4.89616 -1.40917 -0.00208904 -0.000951637 0.00455537
13 1 -0.947762 4.32981 1.42195 0.00131459 -0.000331571 -0.00420742
14 2 0.00807922 3.67558 1.35915 0.00103405 -0.00109402 0.000470948
15 2 -1.9036 4.98405 1.48474 0.00159513 0.000430874 -0.0088858
16 1 7.78773 0.344637 5.44894 -0.000582544 0.00147249 -0.00267375