Created by /home/rramji/scripts/createLammpsInput.pl on Mon Aug 28 17:25:20 2023

         166 atoms
         170 bonds
         306 angles
         458 dihedrals
         108 impropers

           6 atom types
           9 bond types
           3 angle types
           8 dihedral types
           1 improper types

		   0.000000  30.420800 xlo xhi
		   0.000000  21.140900 ylo yhi
		   0.000000  18.995900 zlo zhi

Masses

    1 1.2011E+01 # C_R    
    2 1.2011E+01 # C_3    
    3 1.5999E+01 # O_R    
    4 1.0080E+00 # H___A  
    5 1.0080E+00 # H_     
    6 1.5999E+01 # O_2    

Pair Coeffs

    1    0.09510    3.47299 # C_R C_R 
    2    0.09510    3.47299 # C_3 C_3 
    3    0.09570    3.03315 # O_R O_R 
    4          0    2.84642 # H___A H___A 
    5    0.01520    2.84642 # H_ H_ 
    6    0.09570    3.03315 # O_2 O_2 

Bond Coeffs

    1      350     1.46 # C_R C_3 
    2      525     1.39 # C_R C_R 
    3      350     1.42 # O_R C_3 
    4      350     1.53 # C_3 C_3 
    5      350     0.98 # O_R H___A 
    6      350     1.02 # C_R H_ 
    7      525     1.35 # O_R C_R 
    8      700     1.25 # O_2 C_R 
    9      350     1.09 # C_3 H_ 

Angle Coeffs

    1       50      120 # X C_R X 
    2       50  109.471 # X C_3 X 
    3       50      120 # X O_R X 

Dihedral Coeffs

    1 0.0833333       -1        6 # C_R C_R C_3 X 
    2 0.0833333       -1        6 # O_2 C_R C_3 X 
    3 0.0833333       -1        6 # O_R C_R C_3 X 
    4 0.111111        1        3 # X C_3 C_3 X 
    5 0.166667        1        3 # X C_R C_3 X 
    6    3.125       -1        2 # X C_R C_R X 
    7 0.333333        1        3 # X O_R C_3 X 
    8     6.25       -1        2 # X O_R C_R X 

Improper Coeffs

    1  13.3333        0 # C_R X X X 

Atoms

       1        1        1 -0.14350000  -12.14980    1.10330    5.46260    0    0    0
       2        1        2  0.56700000  -11.54760    2.21760    4.58300    0    0    0
       3        1        3 -0.68000000  -11.01330    3.12470    5.55480    0    0    0
       4        1        4  0.40000000  -10.69010    2.58870    6.29570    0    0    0
       5        1        1 -0.15000000  -13.18960    1.41880    6.34710    0    0    0
       6        1        5  0.15000000  -13.54960    2.41420    6.40990    0    0    0
       7        1        1 -0.15000000  -13.75810    0.44400    7.16060    0    0    0
       8        1        5  0.15000000  -14.54440    0.69920    7.82470    0    0    0
       9        1        1 -0.15000000  -13.29080   -0.86280    7.11010    0    0    0
      10        1        5  0.15000000  -13.72190   -1.60670    7.73060    0    0    0
      11        1        1 -0.15000000  -12.25010   -1.19090    6.25020    0    0    0
      12        1        5  0.15000000  -11.88600   -2.18650    6.21750    0    0    0
      13        1        1 -0.15000000  -11.67990   -0.21680    5.43600    0    0    0
      14        1        5  0.15000000  -10.87850   -0.49740    4.80200    0    0    0
      15        1        1  0.08250000   -8.33030    0.80040    2.01660    0    0    0
      16        1        3 -0.16500000   -7.35590    0.31420    1.16220    0    0    0
      17        1        1 -0.15000000   -9.64620    0.44950    1.74280    0    0    0
      18        1        5  0.15000000   -9.86450   -0.16250    0.90590    0    0    0
      19        1        1 -0.15000000  -10.66520    0.89930    2.57570    0    0    0
      20        1        5  0.15000000  -11.66010    0.60730    2.36520    0    0    0
      21        1        1 -0.14350000  -10.38890    1.71730    3.68150    0    0    0
      22        1        1 -0.15000000   -9.04830    2.04950    3.94270    0    0    0
      23        1        5  0.15000000   -8.79320    2.65930    4.77100    0    0    0
      24        1        1 -0.15000000   -8.02240    1.58610    3.12530    0    0    0
      25        1        5  0.15000000   -7.01720    1.82540    3.35430    0    0    0
      26        1        1  0.08250000   -3.35940    1.39700    1.05780    0    0    0
      27        1        3 -0.16500000   -2.00400    1.67360    1.06970    0    0    0
      28        1        1 -0.15000000   -3.71940    0.05010    1.07760    0    0    0
      29        1        5  0.15000000   -2.96790   -0.69680    1.07410    0    0    0
      30        1        1 -0.15000000   -5.06480   -0.30060    1.10590    0    0    0
      31        1        5  0.15000000   -5.35770   -1.31860    1.12400    0    0    0
      32        1        1  0.08250000   -6.03190    0.70220    1.11720    0    0    0
      33        1        1 -0.15000000   -5.67720    2.05250    1.07590    0    0    0
      34        1        5  0.15000000   -6.42900    2.79920    1.06190    0    0    0
      35        1        1 -0.15000000   -4.32960    2.40380    1.06280    0    0    0
      36        1        5  0.15000000   -4.04540    3.42330    1.07140    0    0    0
      37        1        1 -0.14350000    0.32750    4.83880   -0.34900    0    0    0
      38        1        2  0.56700000    1.22280    5.99180   -0.85680    0    0    0
      39        1        3 -0.68000000    0.77080    6.33160   -2.17760    0    0    0
      40        1        4  0.40000000    1.49420    6.11490   -2.78730    0    0    0
      41        1        1 -0.15000000   -0.98500    4.67460   -0.81960    0    0    0
      42        1        5  0.15000000   -1.38170    5.34890   -1.53590    0    0    0
      43        1        1 -0.15000000   -1.78060    3.62300   -0.37350    0    0    0
      44        1        5  0.15000000   -2.75160    3.48970   -0.77200    0    0    0
      45        1        1  0.08250000   -1.27720    2.74310    0.58190    0    0    0
      46        1        1 -0.15000000    0.01690    2.88960    1.06620    0    0    0
      47        1        5  0.15000000    0.39120    2.20540    1.78310    0    0    0
      48        1        1 -0.15000000    0.81430    3.92880    0.59980    0    0    0
      49        1        5  0.15000000    1.80390    4.02110    0.96860    0    0    0
      50        1        1 -0.15000000    5.23330    4.46640   -1.60310    0    0    0
      51        1        5  0.15000000    6.20150    4.08150   -1.80000    0    0    0
      52        1        1 -0.15000000    5.07750    5.57880   -0.78660    0    0    0
      53        1        5  0.15000000    5.92990    6.04300   -0.35970    0    0    0
      54        1        1 -0.15000000    3.80770    6.08600   -0.52680    0    0    0
      55        1        5  0.15000000    3.73120    6.92940    0.10370    0    0    0
      56        1        1 -0.14350000    2.66730    5.48980   -1.08210    0    0    0
      57        1        1 -0.15000000    2.84590    4.36600   -1.90010    0    0    0
      58        1        5  0.15000000    2.00230    3.88280   -2.32690    0    0    0
      59        1        1 -0.15000000    4.11520    3.85910   -2.15890    0    0    0
      60        1        5  0.15000000    4.22910    3.00690   -2.77940    0    0    0
      61        1        1  0.65900000  -17.59370    2.48810    2.62270    0    0    0
      62        1        2 -0.09900000  -16.19480    1.89290    2.51220    0    0    0
      63        1        5  0.08000000  -15.96440    1.77760    1.45280    0    0    0
      64        1        5  0.08000000  -16.18910    0.90490    2.97180    0    0    0
      65        1        2 -0.16000000  -15.12980    2.78700    3.16890    0    0    0
      66        1        5  0.08000000  -15.11310    3.75090    2.65560    0    0    0
      67        1        2 -0.16000000  -13.74110    2.12920    3.10260    0    0    0
      68        1        5  0.08000000  -13.48320    1.94150    2.05850    0    0    0
      69        1        5  0.08000000  -13.81100    1.16000    3.59530    0    0    0
      70        1        2 -0.08000000  -12.64830    3.01710    3.76820    0    0    0
      71        1        5  0.08000000  -13.14350    3.63480    4.51810    0    0    0
      72        1        2 -0.16000000  -12.10580    3.98350    2.67530    0    0    0
      73        1        5  0.08000000  -11.51040    3.42310    1.95360    0    0    0
      74        1        2 -0.16000000  -11.26890    5.16130    3.19520    0    0    0
      75        1        5  0.08000000  -10.43980    4.78480    3.78850    0    0    0
      76        1        5  0.08000000  -11.88650    5.79140    3.83690    0    0    0
      77        1        2 -0.02180000  -10.68090    6.01780    2.06270    0    0    0
      78        1        5  0.08000000  -10.06000    5.40720    1.42090    0    0    0
      79        1        1 -0.28820000   -9.88910    7.20910    2.56190    0    0    0
      80        1        5  0.15000000  -10.36870    8.14500    2.42020    0    0    0
      81        1        1 -0.28820000   -8.68620    7.14520    3.15620    0    0    0
      82        1        5  0.15000000   -8.21080    8.03110    3.49460    0    0    0
      83        1        2 -0.02180000   -7.92280    5.86700    3.44650    0    0    0
      84        1        2 -0.16000000   -6.40280    6.04560    3.34120    0    0    0
      85        1        5  0.08000000   -6.14850    6.26930    2.30370    0    0    0
      86        1        2 -0.16000000   -5.62590    4.80770    3.80590    0    0    0
      87        1        5  0.08000000   -5.87710    3.95990    3.17010    0    0    0
      88        1        5  0.08000000   -5.90910    4.57040    4.83230    0    0    0
      89        1        2 -0.16000000   -4.11780    5.06820    3.74320    0    0    0
      90        1        5  0.08000000   -3.82320    5.26870    2.71160    0    0    0
      91        1        2 -0.16000000   -3.32510    3.86930    4.27990    0    0    0
      92        1        5  0.08000000   -3.53240    2.98700    3.67300    0    0    0
      93        1        5  0.08000000   -3.62540    3.66420    5.30900    0    0    0
      94        1        2 -0.16000000   -1.82340    4.17590    4.24210    0    0    0
      95        1        5  0.08000000   -1.52890    4.40930    3.21800    0    0    0
      96        1        2 -0.16000000   -1.00270    2.98080    4.73830    0    0    0
      97        1        5  0.08000000   -1.14780    2.13530    4.06280    0    0    0
      98        1        5  0.08000000   -1.33670    2.69550    5.73770    0    0    0
      99        1        2 -0.24000000    0.48510    3.34420    4.79170    0    0    0
     100        1        5  0.08000000    0.83210    3.65400    3.80580    0    0    0
     101        1        5  0.08000000    1.06190    2.47810    5.11760    0    0    0
     102        1        5  0.08000000    0.64210    4.16090    5.49790    0    0    0
     103        1        5  0.08000000   -1.61820    5.04050    4.87570    0    0    0
     104        1        5  0.08000000   -3.88720    5.94570    4.34650    0    0    0
     105        1        5  0.08000000   -6.11180    6.89800    3.95580    0    0    0
     106        1        5  0.08000000   -8.22910    5.06590    2.78840    0    0    0
     107        1        5  0.08000000   -8.17700    5.53530    4.44430    0    0    0
     108        1        5  0.08000000  -11.48090    6.37020    1.42520    0    0    0
     109        1        5  0.08000000  -12.94840    4.40900    2.12880    0    0    0
     110        1        5  0.08000000  -15.39760    2.95880    4.21330    0    0    0
     111        1        6 -0.57000000  -18.11090    3.16130    1.74530    0    0    0
     112        1        3 -0.65000000  -18.21930    2.21270    3.79410    0    0    0
     113        1        4  0.50000000  -17.66530    1.68770    4.36430    0    0    0
     114        1        1  0.65900000    1.39680   11.16280   -0.57760    0    0    0
     115        1        2 -0.09900000    0.94040    9.86370    0.07800    0    0    0
     116        1        2 -0.16000000   -9.80920    4.84670    8.19530    0    0    0
     117        1        5  0.08000000   -0.14500    9.81370   -0.00470    0    0    0
     118        1        5  0.08000000  -10.09330    5.14790    7.18450    0    0    0
     119        1        5  0.08000000  -10.27730    3.88330    8.40430    0    0    0
     120        1        5  0.08000000    1.20370    9.92350    1.13130    0    0    0
     121        1        2 -0.16000000    1.55680    8.60230   -0.56180    0    0    0
     122        1        5  0.08000000    1.32160    8.64650   -1.62580    0    0    0
     123        1        2 -0.08000000    1.01540    7.27230    0.04700    0    0    0
     124        1        5  0.08000000   -0.07010    7.38030    0.05320    0    0    0
     125        1        2 -0.16000000    1.47620    7.08170    1.52320    0    0    0
     126        1        2 -0.16000000    0.33440    6.88640    2.53550    0    0    0
     127        1        5  0.08000000   -0.39650    6.18010    2.13820    0    0    0
     128        1        2 -0.16000000   -0.36250    8.20780    2.89680    0    0    0
     129        1        5  0.08000000   -0.87000    8.59240    2.01210    0    0    0
     130        1        5  0.08000000    0.38270    8.93910    3.21360    0    0    0
     131        1        2 -0.02180000   -1.40450    8.07700    4.01810    0    0    0
     132        1        5  0.08000000   -1.95080    9.00830    4.08950    0    0    0
     133        1        1 -0.28820000   -0.81570    7.74580    5.37750    0    0    0
     134        1        5  0.15000000    0.23040    7.57070    5.38720    0    0    0
     135        1        1 -0.28820000   -1.52220    7.66660    6.51710    0    0    0
     136        1        5  0.15000000   -1.04030    7.43040    7.43260    0    0    0
     137        1        2 -0.02180000   -3.01450    7.90290    6.63890    0    0    0
     138        1        2 -0.16000000   -3.75670    6.71200    7.26190    0    0    0
     139        1        5  0.08000000   -3.52560    5.81750    6.68270    0    0    0
     140        1        2 -0.16000000   -5.27620    6.92070    7.29070    0    0    0
     141        1        5  0.08000000   -5.62670    7.12790    6.27880    0    0    0
     142        1        5  0.08000000   -5.50880    7.78120    7.92120    0    0    0
     143        1        2 -0.16000000   -6.00550    5.68330    7.82760    0    0    0
     144        1        5  0.08000000   -5.76260    4.81970    7.20660    0    0    0
     145        1        2 -0.16000000   -7.52130    5.92330    7.80680    0    0    0
     146        1        5  0.08000000   -7.83560    6.17920    6.79340    0    0    0
     147        1        5  0.08000000   -7.75360    6.76090    8.46560    0    0    0
     148        1        2 -0.16000000   -8.28370    4.67250    8.26810    0    0    0
     149        1        5  0.08000000   -8.00440    3.83570    7.62530    0    0    0
     150        1        2 -0.24000000  -10.35130    5.87310    9.19810    0    0    0
     151        1        5  0.08000000  -10.03320    5.61370   10.20860    0    0    0
     152        1        5  0.08000000  -11.44120    5.87560    9.15980    0    0    0
     153        1        5  0.08000000   -9.99560    6.87300    8.95010    0    0    0
     154        1        5  0.08000000   -7.99610    4.42580    9.29180    0    0    0
     155        1        5  0.08000000   -5.68180    5.48300    8.85080    0    0    0
     156        1        5  0.08000000   -3.39210    6.56050    8.27890    0    0    0
     157        1        5  0.08000000   -3.45560    8.12980    5.67930    0    0    0
     158        1        5  0.08000000   -3.18230    8.78570    7.24150    0    0    0
     159        1        5  0.08000000   -2.13280    7.32960    3.73940    0    0    0
     160        1        5  0.08000000    0.75730    6.44980    3.44140    0    0    0
     161        1        5  0.08000000    2.09340    7.92080    1.84620    0    0    0
     162        1        5  0.08000000    2.11560    6.20360    1.59290    0    0    0
     163        1        5  0.08000000    2.64020    8.66090   -0.47350    0    0    0
     164        1        6 -0.57000000    2.35490   11.29420   -1.32170    0    0    0
     165        1        3 -0.65000000    0.65040   12.23840   -0.27360    0    0    0
     166        1        4  0.50000000    1.06300   12.95440   -0.75830    0    0    0


Bonds

       1        1        1        2 
       2        2        1        5 
       3        2        1       13 
       4        3        2        3 
       5        1        2       21 
       6        4        2       70 
       7        5        3        4 
       8        6        5        6 
       9        2        5        7 
      10        6        7        8 
      11        2        7        9 
      12        6        9       10 
      13        2        9       11 
      14        6       11       12 
      15        2       11       13 
      16        6       13       14 
      17        7       15       16 
      18        2       15       17 
      19        2       15       24 
      20        7       16       32 
      21        6       17       18 
      22        2       17       19 
      23        6       19       20 
      24        2       19       21 
      25        2       21       22 
      26        6       22       23 
      27        2       22       24 
      28        6       24       25 
      29        7       26       27 
      30        2       26       28 
      31        2       26       35 
      32        7       27       45 
      33        6       28       29 
      34        2       28       30 
      35        6       30       31 
      36        2       30       32 
      37        2       32       33 
      38        6       33       34 
      39        2       33       35 
      40        6       35       36 
      41        1       37       38 
      42        2       37       41 
      43        2       37       48 
      44        3       38       39 
      45        1       38       56 
      46        4       38      123 
      47        5       39       40 
      48        6       41       42 
      49        2       41       43 
      50        6       43       44 
      51        2       43       45 
      52        2       45       46 
      53        6       46       47 
      54        2       46       48 
      55        6       48       49 
      56        6       50       51 
      57        2       50       52 
      58        2       50       59 
      59        6       52       53 
      60        2       52       54 
      61        6       54       55 
      62        2       54       56 
      63        2       56       57 
      64        6       57       58 
      65        2       57       59 
      66        6       59       60 
      67        1       61       62 
      68        8       61      111 
      69        7       61      112 
      70        9       62       63 
      71        9       62       64 
      72        4       62       65 
      73        9       65       66 
      74        4       65       67 
      75        9       65      110 
      76        9       67       68 
      77        9       67       69 
      78        4       67       70 
      79        9       70       71 
      80        4       70       72 
      81        9       72       73 
      82        4       72       74 
      83        9       72      109 
      84        9       74       75 
      85        9       74       76 
      86        4       74       77 
      87        9       77       78 
      88        1       77       79 
      89        9       77      108 
      90        6       79       80 
      91        2       79       81 
      92        6       81       82 
      93        1       81       83 
      94        4       83       84 
      95        9       83      106 
      96        9       83      107 
      97        9       84       85 
      98        4       84       86 
      99        9       84      105 
     100        9       86       87 
     101        9       86       88 
     102        4       86       89 
     103        9       89       90 
     104        4       89       91 
     105        9       89      104 
     106        9       91       92 
     107        9       91       93 
     108        4       91       94 
     109        9       94       95 
     110        4       94       96 
     111        9       94      103 
     112        9       96       97 
     113        9       96       98 
     114        4       96       99 
     115        9       99      100 
     116        9       99      101 
     117        9       99      102 
     118        5      112      113 
     119        1      114      115 
     120        8      114      164 
     121        7      114      165 
     122        9      115      117 
     123        9      115      120 
     124        4      115      121 
     125        9      116      118 
     126        9      116      119 
     127        4      116      148 
     128        4      116      150 
     129        9      121      122 
     130        4      121      123 
     131        9      121      163 
     132        9      123      124 
     133        4      123      125 
     134        4      125      126 
     135        9      125      161 
     136        9      125      162 
     137        9      126      127 
     138        4      126      128 
     139        9      126      160 
     140        9      128      129 
     141        9      128      130 
     142        4      128      131 
     143        9      131      132 
     144        1      131      133 
     145        9      131      159 
     146        6      133      134 
     147        2      133      135 
     148        6      135      136 
     149        1      135      137 
     150        4      137      138 
     151        9      137      157 
     152        9      137      158 
     153        9      138      139 
     154        4      138      140 
     155        9      138      156 
     156        9      140      141 
     157        9      140      142 
     158        4      140      143 
     159        9      143      144 
     160        4      143      145 
     161        9      143      155 
     162        9      145      146 
     163        9      145      147 
     164        4      145      148 
     165        9      148      149 
     166        9      148      154 
     167        9      150      151 
     168        9      150      152 
     169        9      150      153 
     170        5      165      166 

Angles

       1        1        1       13       11 
       2        1        2        1       13 
       3        1        2       21       19 
       4        2        3        2        1 
       5        2        3        2       21 
       6        3        4        3        2 
       7        1        5        1        2 
       8        1        5        1       13 
       9        1        6        5        1 
      10        1        7        5        1 
      11        1        7        5        6 
      12        1        7        9       10 
      13        1        7        9       11 
      14        1        8        7        5 
      15        1        9        7        5 
      16        1        9        7        8 
      17        1        9       11       12 
      18        1        9       11       13 
      19        1       11        9       10 
      20        1       13       11       12 
      21        1       14       13        1 
      22        1       14       13       11 
      23        1       17       15       16 
      24        1       18       17       15 
      25        1       19       17       15 
      26        1       19       17       18 
      27        1       20       19       17 
      28        2       21        2        1 
      29        1       21       19       17 
      30        1       21       19       20 
      31        1       22       21        2 
      32        1       22       21       19 
      33        1       22       24       15 
      34        1       23       22       21 
      35        1       24       15       16 
      36        1       24       15       17 
      37        1       24       22       21 
      38        1       24       22       23 
      39        1       25       24       15 
      40        1       25       24       22 
      41        1       28       26       27 
      42        1       29       28       26 
      43        1       30       28       26 
      44        1       30       28       29 
      45        1       30       32       16 
      46        1       31       30       28 
      47        3       32       16       15 
      48        1       32       30       28 
      49        1       32       30       31 
      50        1       33       32       16 
      51        1       33       32       30 
      52        1       33       35       26 
      53        1       34       33       32 
      54        1       35       26       27 
      55        1       35       26       28 
      56        1       35       33       32 
      57        1       35       33       34 
      58        1       36       35       26 
      59        1       36       35       33 
      60        2       37       38      123 
      61        2       38      123      121 
      62        2       38      123      124 
      63        2       38      123      125 
      64        2       39       38       37 
      65        2       39       38      123 
      66        3       40       39       38 
      67        1       41       37       38 
      68        1       42       41       37 
      69        1       43       41       37 
      70        1       43       41       42 
      71        1       43       45       27 
      72        1       44       43       41 
      73        3       45       27       26 
      74        1       45       43       41 
      75        1       45       43       44 
      76        1       46       45       27 
      77        1       46       45       43 
      78        1       46       48       37 
      79        1       47       46       45 
      80        1       48       37       38 
      81        1       48       37       41 
      82        1       48       46       45 
      83        1       48       46       47 
      84        1       49       48       37 
      85        1       49       48       46 
      86        1       52       50       51 
      87        1       53       52       50 
      88        1       54       52       50 
      89        1       54       52       53 
      90        1       54       56       38 
      91        1       55       54       52 
      92        2       56       38       37 
      93        2       56       38       39 
      94        2       56       38      123 
      95        1       56       54       52 
      96        1       56       54       55 
      97        1       57       56       38 
      98        1       57       56       54 
      99        1       57       59       50 
     100        1       58       57       56 
     101        1       59       50       51 
     102        1       59       50       52 
     103        1       59       57       56 
     104        1       59       57       58 
     105        1       60       59       50 
     106        1       60       59       57 
     107        3       61      112      113 
     108        1       62       61      111 
     109        1       62       61      112 
     110        2       62       65      110 
     111        2       63       62       61 
     112        2       64       62       61 
     113        2       64       62       63 
     114        2       65       62       61 
     115        2       65       62       63 
     116        2       65       62       64 
     117        2       66       65       62 
     118        2       66       65      110 
     119        2       67       65       62 
     120        2       67       65       66 
     121        2       67       65      110 
     122        2       67       70        2 
     123        2       68       67       65 
     124        2       69       67       65 
     125        2       69       67       68 
     126        2       70        2        1 
     127        2       70        2        3 
     128        2       70        2       21 
     129        2       70       67       65 
     130        2       70       67       68 
     131        2       70       67       69 
     132        2       70       72      109 
     133        2       71       70        2 
     134        2       71       70       67 
     135        2       72       70        2 
     136        2       72       70       67 
     137        2       72       70       71 
     138        2       73       72       70 
     139        2       73       72      109 
     140        2       74       72       70 
     141        2       74       72       73 
     142        2       74       72      109 
     143        2       74       77      108 
     144        2       75       74       72 
     145        2       76       74       72 
     146        2       76       74       75 
     147        2       77       74       72 
     148        2       77       74       75 
     149        2       77       74       76 
     150        2       78       77       74 
     151        2       78       77      108 
     152        2       79       77       74 
     153        2       79       77       78 
     154        2       79       77      108 
     155        1       80       79       77 
     156        1       81       79       77 
     157        1       81       79       80 
     158        2       81       83      106 
     159        2       81       83      107 
     160        1       82       81       79 
     161        1       83       81       79 
     162        1       83       81       82 