ITEM: TIMESTEP
0
ITEM: NUMBER OF ATOMS
122
ITEM: BOX BOUNDS pp pp pp
0.0000000000000000e+00 2.0000000000000000e+01
0.0000000000000000e+00 2.0000000000000000e+01
0.0000000000000000e+00 2.0000000000000000e+01
ITEM: ATOMS id type xu yu zu vx vy vz
16 1 0.974024 0.561747 1.25996 0 0 -0
17 1 2.23915 1.19393 1.84864 -0 0 0
18 1 2.84551 0.311474 2.9506 0 0 -0
19 1 4.06647 1.01182 3.56305 0 -0 0
20 1 4.51161 0.330271 4.8657 -0 -0 0
21 1 5.67158 1.12372 5.48273 0 -0 -0
42 6 0.377713 0.159418 2.07582 -0 -0 -0
44 6 2.96785 1.34356 1.05218 0 -0 0
45 6 1.96683 2.16101 2.27084 -0 0 -0
46 6 2.10149 0.145187 3.72919 -0 0 0
48 6 4.88666 0.995591 2.84525 0 -0 -0
49 6 3.80637 2.04648 3.78277 -0 0 -0
50 6 3.67813 0.311813 5.56762 -0 -0 -0
52 6 6.54161 1.05301 4.82989 -0 0 -0
53 6 5.37625 2.16857 5.57195 0 0 0
15 5 0.0554945 1.85683 0.401192 0 0 0
113 5 6.36849 10.1799 5.62908 -0 -0 0
83 4 6.87237 10.1458 6.52885 0 -0 -0
105 5 7.28178 8.26108 5.99711 -0 0 -0
43 6 1.24494 -0.233625 0.565742 -0 0 0
47 6 3.14814 -0.646714 2.52811 0 0 0
51 6 4.83353 -0.690197 4.65727 -0 -0 0
63 6 -1.63923 -0.408932 1.20501 0 0 -0
64 6 -3.27354 -1.61594 0.0785323 -0 0 -0
27 3 -1.84965 -0.140231 0.247596 0 -0 0
22 1 6.03999 0.59806 6.87676 0 0 -0
54 6 5.15387 0.589695 7.51131 0 0 0
58 6 6.56588 1.08497 9.54175 0 0 -0
92 5 6.01214 6.44251 9.3469 0 -0 -0
56 6 7.99176 1.50766 6.87355 0 0 0
91 5 7.20322 5.92302 8.29184 0 -0 0
23 1 7.09614 1.52452 7.49425 -0 -0 -0
24 1 7.45947 1.08498 8.91725 -0 0 -0
25 1 8.48215 2.06221 9.50636 0 0 0
26 5 8.95041 1.53517 11.1617 0 0 0
32 6 -7.43548 0.376205 -9.74559 0 0 0
57 6 6.70448 2.54099 7.53136 0 0 -0
60 6 9.3712 2.09203 8.87695 0 0 -0
61 6 8.04371 3.05665 9.56052 0 -0 -0
62 7 9.83895 2.55686 11.2906 -0 -0 -0
90 5 7.64361 5.89145 10.6179 -0 0 0
89 5 8.89938 6.27177 9.44714 0 -0 -0
59 6 7.88793 0.0828868 8.89554 0 -0 0
67 6 -6.86847 0.350941 -7.53681 0 -0 0
116 5 6.21369 12.0483 6.72444 -0 0 -0
74 3 6.50618 8.00353 8.01112 0 0 -0
95 5 5.88945 8.6787 8.60718 -0 0 -0
96 5 5.76314 7.47566 7.41027 -0 0 0
104 5 9.41203 12.331 6.7267 0 0 0
72 3 6.96132 6.78964 8.91837 0 -0 0
71 3 8.07858 6.70947 10.0334 0 -0 0
73 3 8.50428 7.8954 11.0522 -0 -0 0
75 3 9.7998 7.92936 12.0584 -0 0 -0
76 3 10.6586 11.9739 8.59979 0 0 0
77 3 12.2011 12.1907 8.15256 0 0 0
78 3 9.32413 12.4571 7.81106 -0 0 0
79 3 7.37597 8.8006 6.94116 -0 0 -0
82 3 7.81355 12.0423 8.15506 -0 0 0
85 4 6.95155 11.429 7.10134 0 0 0
93 5 7.5699 8.17276 11.5497 -0 -0 0
94 5 8.74726 8.69268 10.3793 0 0 0
97 5 10.0381 6.92088 12.4197 -0 -0 0
98 5 10.5824 8.22377 11.3518 -0 -0 -0
99 5 10.5646 12.4154 9.5954 -0 -0 -0
100 5 10.5902 10.9001 8.6466 -0 -0 -0
101 5 12.4158 13.244 7.93944 0 0 -0
102 5 12.426 11.6538 7.21978 0 -0 0
106 5 8.44452 8.83545 7.10798 0 0 -0
107 5 9.88227 9.97408 13.0586 -0 -0 0
111 5 7.507 11.6715 9.14299 -0 -0 0
112 5 7.36403 13.0358 8.18203 -0 0 -0
114 5 13.0857 10.9131 10.9683 0 0 -0
109 5 13.8333 12.8685 9.36302 0 0 0
81 3 13.5056 11.8841 9.00096 -0 -0 0
84 3 13.7313 10.7386 10.1119 -0 -0 0
87 3 15.0641 10.4478 10.887 -0 0 0
110 5 14.1592 11.6759 8.14915 -0 -0 -0
115 5 13.5135 9.74814 9.70777 0 -0 -0
119 5 15.278 11.1552 11.6952 -0 0 -0
120 5 15.9784 10.2517 10.3149 0 -0 0
121 5 14.8608 9.50612 11.3953 -0 0 -0
55 6 6.43777 -0.41389 6.79475 -0 -0 0
103 5 9.23295 13.5358 7.97346 -0 -0 0
1 1 -7.49194 -0.638412 -9.35235 0 -0 -0
31 1 -7.23944 -0.628449 -7.84081 0 0 -0
33 6 -8.46253 -1.08092 -9.57785 0 -0 -0
68 6 -8.16307 -0.858906 -7.31076 -0 -0 -0
34 6 -6.73345 -2.5095 -10.1152 -0 0 -0
35 6 -5.94705 -1.06443 -10.8316 -0 -0 -0
37 6 -4.80233 -0.58594 -8.79971 0 -0 -0
2 1 -6.36615 -1.50074 -9.92516 0 0 0
3 1 -5.34644 -1.53008 -8.78997 0 -0 0
4 2 -6.20846 -1.64954 -7.60967 0 -0 -0
36 6 -4.66849 -2.37855 -8.88664 -0 0 -0
66 6 -3.65099 -0.918136 -6.81626 0 -0 -0
12 3 -2.58368 0.581189 -2.31561 0 0 -0
13 3 -1.56624 1.26257 -1.65715 -0 -0 -0
14 3 -1.18147 0.910127 -0.370885 0 0 -0
40 6 -2.87135 0.934309 -3.22347 0 -0 0
41 6 -1.1097 2.04924 -2.11883 -0 0 -0
80 3 9.99924 8.92197 13.3485 0 0 0
117 5 12.2754 8.80792 13.9314 -0 -0 0
69 1 12.4252 11.1118 14.6088 -0 0 -0
70 2 10.7533 10.6144 15.9999 0 0 -0
86 3 11.2641 8.97748 14.3254 0 -0 -0
88 4 11.425 10.2851 14.994 0 -0 -0
108 5 9.24554 8.69003 14.1092 -0 -0 0
118 5 11.1256 8.28753 15.1647 -0 0 0
122 6 12.5683 11.962 15.0765 -0 0 -0
38 6 -7.38183 -2.17232 -5.40858 -0 0 -0
6 3 -6.42901 -1.84459 -5.25349 -0 -0 -0
39 6 -6.62954 -1.97486 -3.20936 -0 0 -0
5 3 -5.62295 -1.51926 -6.33634 0 -0 -0
7 3 -5.96989 -1.73992 -3.94964 -0 0 -0
8 3 -4.67272 -1.31018 -3.66561 0 0 -0
9 3 -4.2797 -1.23545 -2.31661 0 -0 0
10 4 -4.97982 -1.90051 -1.52207 0 -0 -0
11 3 -3.22695 -0.510722 -1.72623 0 0 -0
28 3 -2.84082 -0.842295 -0.424358 0 0 -0
29 3 -3.84452 -1.04791 -4.76021 0 -0 0
30 3 -4.30858 -1.13417 -6.06972 0 -0 -0
65 6 -2.86233 -0.824015 -4.62632 0 0 0
ITEM: TIMESTEP
1000
ITEM: NUMBER OF ATOMS
122
ITEM: BOX BOUNDS pp pp pp
0.0000000000000000e+00 2.0000000000000000e+01
0.0000000000000000e+00 2.0000000000000000e+01
0.0000000000000000e+00 2.0000000000000000e+01
ITEM: ATOMS id type xu yu zu vx vy vz
16 1 0.595235 1.14149 1.49645 -0.000400511 0.0027557 4.86395e-05
17 1 1.81062 1.93131 1.99655 -0.000667896 0.00266423 0.000496418
18 1 2.3085 1.37019 3.33523 -0.00375038 0.00465624 0.00250427
19 1 3.54971 2.13779 3.8114 -0.00223685 0.0025767 0.00158151
20 1 4.09234 1.52076 5.10777 -0.00368468 0.00381225 0.00277007
21 1 5.43631 2.16053 5.47784 -0.00159138 0.00120097 -0.000399547
42 6 -0.235719 1.28352 2.18796 -0.000923849 0.00377859 -0.000746669
44 6 2.60404 1.85627 1.25246 0.000379319 0.000178638 0.00180065
45 6 1.52939 2.97763 2.11913 0.000493516 0.00328082 -0.00195304
46 6 1.51936 1.46419 4.08152 -0.00428904 0.00799924 0.0014988
48 6 4.3187 2.09123 3.04042 -0.00226091 -0.00100732 0.00171633
49 6 3.28358 3.17971 3.99365 0.000229427 0.00367174 -0.000199163
50 6 3.37671 1.68808 5.91301 -0.00251959 0.00786186 0.00294448
52 6 6.16243 1.94712 4.69336 -0.00295562 -0.003058 -0.000586364
53 6 5.31237 3.24013 5.57037 0.00109587 0.00196477 -0.00340421
15 5 0.15492 1.76571 -0.137707 0.000733517 0.00115747 -0.000847813
113 5 6.50484 9.92269 5.47576 0.000859271 -0.000852267 -0.000272348
83 4 6.95248 9.93114 6.40489 0.00053131 -0.000756693 -0.000179363
105 5 7.39079 8.02424 5.97917 0.00100381 -0.000587013 -0.000135834
43 6 0.857453 0.0855299 1.42685 -0.000566242 0.00252365 0.000742637
47 6 2.55945 0.316845 3.20914 -0.00626179 0.00387852 0.00510043
51 6 4.23645 0.448994 4.9708 -0.00710938 0.00317161 0.00556106
63 6 -1.45685 -0.488109 1.06466 0.00156931 0.000493966 -0.00038402
64 6 -3.28363 -1.67792 0.225509 0.00192447 -1.61432e-05 -3.01705e-05
27 3 -1.79742 -0.235282 0.141487 0.00108065 0.000758524 -0.000321809
22 1 5.95161 1.59551 6.80743 -0.00214405 0.00393858 0.000872567
54 6 5.31889 1.95377 7.61999 0.000142243 0.00947245 2.32974e-05
58 6 7.22791 2.30415 9.16221 0.00271025 0.00521935 -0.00325912
92 5 5.99984 6.40511 9.40762 0.00014339 -0.000658342 -0.000302356
56 6 8.04726 1.53392 6.32135 -0.00304513 -0.00488883 -0.00224314
91 5 7.14529 5.78863 8.36004 0.000485908 -0.000847838 5.99656e-05
23 1 7.39818 2.05677 7.02434 -0.000271756 -0.000395488 -0.00286983
24 1 7.85124 1.75381 8.45745 0.000716067 0.00256897 -0.00265717
25 1 9.31203 2.17469 8.65103 0.0016911 0.000510496 -0.0057033
26 5 9.81231 1.83 10.3463 0.00347899 0.00450213 -0.00529605
32 6 -6.8912 0.382586 -9.63356 -0.000454094 -0.00290144 -0.000966076
57 6 7.46862 3.12883 6.84582 0.00309351 -0.00105541 -0.00640481
60 6 9.95177 1.61527 7.96782 -0.000231257 -0.00277031 -0.00470804
61 6 9.41815 3.24111 8.45764 0.00335789 -0.000170114 -0.00925326
62 7 11.0671 2.30583 10.124 0.00612627 -0.00485013 -0.00992203
90 5 7.72692 5.77061 10.5819 -0.000540887 -0.000361962 0.000440505
89 5 8.93313 6.22152 9.40206 -0.000112494 -0.00142966 0.000617817
59 6 7.7582 0.685144 8.65159 -0.0006428 0.00318322 0.000214308
67 6 -6.54895 0.268824 -7.38212 0.00158369 -0.000456132 -0.0016628
116 5 6.27829 11.8271 6.46087 5.99967e-05 -0.000823314 -0.000411258
74 3 6.53468 7.86324 7.97394 0.000527075 -0.000922397 -0.000300777
95 5 5.91169 8.55902 8.5364 0.000374006 -0.00108348 -0.000328139
96 5 5.80144 7.32149 7.37148 0.00072708 -0.00104347 -0.000646213
104 5 9.395 12.4204 6.75739 -0.000168857 -0.000319471 1.06139e-05
72 3 6.95527 6.69243 8.9473 0.000292541 -0.000768411 -0.000123837
71 3 8.11855 6.6238 10.0183 -7.52449e-05 -0.000723426 0.00024595
73 3 8.54333 7.79359 11.0628 1.23134e-05 -0.000585789 6.42512e-05
75 3 9.87303 7.81573 12.0335 0.000109556 -0.000810794 0.0001264
76 3 10.5636 11.9096 8.6456 -0.000270045 0.000331552 0.000234671
77 3 12.107 12.2752 8.29755 -0.000383567 0.00104029 0.000616061
78 3 9.24252 12.4107 7.84282 -0.000349148 -9.82373e-05 -3.59118e-05
79 3 7.43977 8.61125 6.89891 0.000758618 -0.00068226 -6.02838e-05
82 3 7.73959 11.8944 8.04357 -0.000254965 -0.00051755 -0.000212659
85 4 6.98479 11.235 6.93158 -2.74664e-06 -0.000691201 -0.000331251
93 5 7.62445 7.99969 11.618 -7.18144e-06 -0.000461364 7.1729e-05
94 5 8.70207 8.63874 10.4194 0.000167707 -0.000545152 0.000117098
97 5 10.0879 6.8031 12.4002 -0.000443316 -0.000774407 0.00045229
98 5 10.6538 8.09227 11.3175 9.87262e-05 -0.00121713 2.96513e-06
99 5 10.3919 12.2095 9.6811 -0.000606318 4.02129e-05 0.000195936
100 5 10.5597 10.832 8.57085 3.79381e-05 0.000279972 5.40091e-06
101 5 12.2556 13.3479 8.12829 -0.000865763 0.00121817 0.00136786
102 5 12.4165 11.7886 7.36057 -4.13061e-05 0.00178241 0.000337799
106 5 8.49768 8.67461 7.1074 0.000644096 -0.000741039 0.000312993
107 5 10.1306 9.86204 12.9654 0.000917632 -0.000751294 -0.000172603
111 5 7.3812 11.5358 9.01589 -0.000274354 -0.000729158 -0.000220434
112 5 7.23611 12.8615 8.0193 -0.000411052 -0.000639528 -0.000296922
114 5 13.0479 11.0015 11.1156 -4.83092e-05 0.00099704 0.000664417
109 5 13.5468 13.0502 9.68769 -0.00051573 0.000865551 0.000704848
81 3 13.3872 12.0722 9.21075 -0.0003626 0.00090743 0.000541899
84 3 13.6852 10.8744 10.2466 -0.00037638 0.00086799 0.000427604
87 3 15.0531 10.59 10.964 -0.000207162 0.00050793 -4.55088e-05
110 5 14.123 12.0548 8.4022 -0.000441489 0.00111831 0.000537597
115 5 13.4833 9.88996 9.82005 -0.000539896 0.000904695 0.000526474
119 5 15.3918 11.3461 11.6815 0.000523937 0.000494073 -0.000507598
120 5 15.8908 10.2704 10.3333 -0.000743784 -0.000111405 -0.000288179
121 5 14.8406 9.71511 11.5744 -0.000177403 0.000788351 0.00033374
55 6 5.928 0.506184 6.78237 -0.00619954 0.00412114 0.00511287
103 5 9.07206 13.4516 8.13511 -0.000674589 -0.000131844 -0.000347062
1 1 -7.22657 -0.580808 -9.24793 -0.000588938 -0.00229628 0.000509824
31 1 -7.1106 -0.602797 -7.71821 0.00029947 -0.000531028 0.000326052
33 6 -8.2507 -0.781513 -9.56126 -0.000851046 -0.00278251 0.000962184
68 6 -8.10347 -0.603692 -7.26725 0.000743925 0.00110422 0.00103623
34 6 -6.88935 -2.59019 -9.9603 -0.00216581 -0.00290611 0.00110968
35 6 -5.71183 -1.38987 -10.5903 -0.00118325 -0.00434197 0.0006309
37 6 -4.67121 -1.17118 -8.4991 -0.000191411 -0.00438871 0.00065787
2 1 -6.30447 -1.69997 -9.72909 -0.00150623 -0.00327477 0.000880059
3 1 -5.42759 -1.95464 -8.50992 -0.00139405 -0.00333245 0.00106195
4 2 -6.37043 -1.82865 -7.39008 -0.000876126 -0.00116734 0.00128875
36 6 -4.97175 -2.94467 -8.54978 -0.00278704 -0.00396339 0.00141776
66 6 -3.75897 -1.61407 -6.50715 -0.00099368 -0.00155997 0.000880598
12 3 -2.83873 0.371046 -2.34532 0.000179906 0.000215587 4.19936e-05
13 3 -1.74459 1.06955 -1.85268 -2.67507e-05 0.000591804 -0.000388305
14 3 -1.20469 0.780565 -0.60746 0.0006583 0.000861629 -0.000448033
40 6 -3.2255 0.669221 -3.23772 -0.000471266 -0.000250294 8.25598e-05
41 6 -1.33869 1.81978 -2.4123 -0.000619654 0.000883934 -0.00038797
80 3 10.1471 8.81976 13.3021 0.000476215 -0.000693636 1.41829e-05
117 5 12.3976 8.52133 13.915 0.000439493 -0.000252125 -0.000481232
69 1 12.8434 10.7334 14.617 0.000693991 -0.00111155 0.00113224
70 2 10.9739 10.6104 15.823 6.67727e-05 -0.000971074 5.62109e-05
86 3 11.403 8.79547 14.2944 0.000582586 -0.000921861 7.55281e-06
88 4 11.6865 10.1036 14.9239 0.000292357 -0.000997767 0.000425343
108 5 9.37115 8.69657 14.0637 0.00026098 -0.000126616 -1.96074e-05
118 5 11.1949 8.14241 15.1492 0.00112481 -0.00122491 -0.000207173
122 6 13.0731 11.5804 15.0551 0.000410236 -0.00110334 0.00126467
38 6 -7.71643 -2.01173 -5.1965 -0.000559295 -0.00074729 0.000880509
6 3 -6.72316 -1.86532 -5.01845 -0.000665938 -0.000528829 0.00149
39 6 -6.97852 -1.84052 -2.9563 -0.000117051 -0.000338953 0.00151725
5 3 -5.83507 -1.76465 -6.08772 -0.000724063 -0.000909508 0.00111495
7 3 -6.28675 -1.7701 -3.70192 -0.000335796 -0.000504495 0.00133812
8 3 -4.94416 -1.54114 -3.4087 -0.000222799 -0.000513764 0.00112688
9 3 -4.53173 -1.40037 -2.07495 0.000417734 -3.23118e-05 0.000653253
10 4 -5.23531 -1.96791 -1.21243 0.000782482 -0.000363588 0.00121883
11 3 -3.41715 -0.673187 -1.62099 0.000355124 -2.50817e-05 0.000268692
28 3 -2.8886 -0.940439 -0.357565 0.00117607 0.000394497 -5.81796e-05
29 3 -4.04809 -1.52613 -4.47473 -0.000480883 -0.000964026 0.000739905
30 3 -4.47817 -1.63494 -5.78845 -0.000841983 -0.00113318 0.000952752
65 6 -3.04598 -1.46239 -4.30829 -0.000315984 -0.00103302 0.000116925
ITEM: TIMESTEP
2000
ITEM: NUMBER OF ATOMS
122
ITEM: BOX BOUNDS pp pp pp
0.0000000000000000e+00 2.0000000000000000e+01
0.0000000000000000e+00 2.0000000000000000e+01
0.0000000000000000e+00 2.0000000000000000e+01
ITEM: ATOMS id type xu yu zu vx vy vz
16 1 -0.246934 2.61454 1.53901 -0.00305703 0.00406793 -0.00218364
17 1 0.855534 3.50379 2.13166 -0.00349065 0.00352446 6.77522e-05
18 1 1.69097 2.77236 3.19753 0.00229036 -0.000293683 -0.0066306
19 1 2.83515 3.67761 3.68959 0.000654654 0.000884635 -0.00419887
20 1 4.0644 2.84181 4.05648 0.0020452 0.00245294 -0.00727994
21 1 5.20669 3.71497 4.5894 0.00174535 0.0028656 -0.00761458
44 6 1.50239 3.80979 1.3095 -0.00706449 0.0100912 -0.000143029
45 6 0.402075 4.38965 2.57571 -0.00436312 -0.000702278 0.00752655
46 6 1.05987 2.50507 4.04552 0.00576955 -0.00829334 -0.00661098
48 6 3.1233 4.3783 2.90663 -0.00150098 0.00325142 -0.00295786
49 6 2.49695 4.23941 4.55976 0.000234898 -0.00159376 -0.00300622
50 6 3.78988 2.1071 4.8132 0.00467286 0.000385648 -0.0084793
52 6 5.52859 4.41616 3.81912 0.00165496 0.00266082 -0.00799169
53 6 4.88761 4.25992 5.47895 0.0025525 0.0027683 -0.00746689
43 6 -0.303065 1.6852 2.10169 -0.00629032 0.00501118 -0.00123904
47 6 2.10204 1.86441 2.75725 0.00440467 0.00406258 -0.0139103
51 6 4.4044 2.32717 3.15797 0.00120308 0.00457461 -0.0089659
56 6 8.14732 3.56335 4.04751 0.00180471 -0.00088425 -0.00554791
42 6 -1.20526 3.13086 1.59696 -0.00265997 0.00523045 -0.00538143
113 5 6.72866 9.63523 5.34542 -0.000566203 -0.000681742 0.000872722
116 5 6.2754 11.4763 6.34971 0.00132717 -0.000288708 -0.000462111
83 4 7.11877 9.6585 6.30172 -7.95674e-05 -0.000550755 0.000658894
105 5 7.70931 7.79217 5.85841 -0.00166574 -0.000214117 0.000107817
63 6 -0.523668 -0.290644 0.821115 0.00487119 -0.000118041 -0.00282704
64 6 -2.38559 -1.71479 0.405194 0.00499078 -0.00190875 -0.00124098
27 3 -1.2114 -0.015414 0.121009 0.00303108 -0.000676679 -0.00182622
22 1 6.3535 2.77027 4.94514 0.00037734 0.000936831 -0.00924432
54 6 6.11418 2.29926 5.89755 -0.00090579 -0.00234799 -0.01102
92 5 6.43955 6.0258 9.27184 0.00236605 -0.00260989 -0.00116356
55 6 6.45075 1.99362 4.1874 0.00105936 0.00325537 -0.0118818
58 6 8.12003 2.68696 6.9785 -0.00357446 0.000244842 -0.00457226
91 5 7.64511 5.51999 8.22744 0.00129857 -0.00156213 -0.00224589
23 1 7.68984 3.50469 5.03571 0.000130348 6.92542e-05 -0.0063563
24 1 8.55124 2.66811 5.97738 -0.00251484 -0.000374318 -0.00448958
25 1 9.97651 3.18778 6.08458 -0.00239564 -0.000684594 -0.00511108
26 5 10.7306 2.09829 7.29635 0.00278626 -0.00115126 -0.00856063
32 6 -7.59061 -1.51392 -9.26692 0.006067 0.00484764 0.00442024
57 6 7.55017 4.50438 5.4416 0.000260474 0.000174084 -0.00683063
60 6 10.4907 3.10719 5.12718 -0.00418187 0.00191382 -0.0063365
61 6 9.98761 4.21846 6.44055 -0.0028614 -0.00109425 -0.00405636
62 7 11.9091 2.77547 7.24954 0.00255615 -0.000856116 -0.0117793
90 5 8.23383 5.50016 10.4173 0.000305338 5.33807e-05 0.000910271
89 5 9.37294 6.11709 9.21535 0.00116639 -0.0010512 0.000533861
59 6 8.58091 1.63762 5.624 -0.00274317 -0.000225244 -0.00449815
71 3 8.53514 6.39993 9.86779 0.000817542 -0.000642418 -0.000163236
67 6 -6.10845 -0.95825 -7.49567 -0.00264718 0.00610627 0.00872871
74 3 6.86076 7.53894 7.84471 0.000284245 -0.000835954 0.000527361
95 5 6.15056 8.16132 8.38735 0.000627047 -0.000831978 0.000999782
96 5 6.20364 6.93338 7.22451 -0.000494388 -0.000527883 0.00118366
104 5 9.10789 12.7429 7.08017 -0.00088379 0.00214743 0.0021558
72 3 7.36571 6.39748 8.81402 0.00174576 -0.0017691 -0.00120068
73 3 8.86829 7.57822 10.9196 0.000679857 -6.18098e-05 -0.000385513
75 3 10.1575 7.6394 11.9275 0.000482654 0.000468049 -0.000531712
76 3 10.336 11.8691 8.79453 0.000183551 -5.67965e-05 0.000136086
77 3 11.8096 12.509 8.59894 -2.17989e-05 0.000318211 -1.75085e-05
78 3 8.96291 12.3939 8.1087 -9.8668e-05 0.000141419 0.00146699
79 3 7.69977 8.37423 6.78327 -0.000197278 -0.000580692 0.000350723
82 3 7.55682 11.6394 8.07152 0.000351275 -0.000546592 0.000565825
85 4 6.99412 10.9415 6.86766 0.000695169 -0.000376368 0.000268227
93 5 7.9112 7.85193 11.3767 0.000480863 -0.000367003 -0.000419438
94 5 9.10176 8.41292 10.2828 0.00032381 8.30932e-05 -0.000384648
97 5 10.675 6.67595 12.0359 0.00152799 0.00100623 -0.00110427
98 5 10.8043 8.25582 11.3021 -0.000296224 0.00138837 -0.00017694
99 5 10.1344 11.8042 9.86423 0.000115031 -0.000999169 3.7549e-05
100 5 10.4875 10.8786 8.40058 0.00031416 0.000300793 -0.00106227
102 5 12.1944 12.1749 7.6269 -0.000535761 0.000382719 -0.000226982
106 5 8.74242 8.53118 6.99715 0.000202023 -0.00105307 -0.000441534
107 5 9.92297 9.41264 13.2915 -0.000651436 -0.000488591 0.000238877
111 5 7.15112 11.2337 9.00397 -0.000261257 -0.000340344 0.000457925
112 5 6.93633 12.5322 7.99136 0.000710585 -0.00050273 0.000178893
114 5 12.9384 11.1381 11.3706 -0.000751953 0.000537782 -0.000376646
80 3 10.1964 8.35642 13.3895 -3.90576e-05 -0.000305908 -0.000185508
109 5 13.104 13.2937 10.0989 0.000408255 -0.000182139 -0.000118645
81 3 13.0891 12.3599 9.51815 0.000117859 3.19496e-05 -0.000337704
84 3 13.5262 11.1237 10.4511 -0.000479774 1.6741e-05 -0.000134961
87 3 14.9664 10.8628 11.0178 -0.00101176 -0.000515833 0.000700273
110 5 13.8268 12.5101 8.72324 0.000242106 -0.000422681 -0.000244116
115 5 13.3764 10.1687 9.9516 -9.09351e-05 -0.000227253 0.000198458
119 5 15.5069 11.6808 11.5165 -0.00141125 -0.00103713 0.00204256
120 5 15.62 10.3612 10.2956 -0.000575464 0.000194683 0.000641466
121 5 14.8142 10.1211 11.8016 -0.00169485 -0.00137141 -0.000288494
101 5 11.8213 13.6069 8.55764 8.58909e-05 0.000301284 -0.000120547
103 5 8.64106 13.2635 8.69173 -0.000159306 -0.00154386 0.00366081
1 1 -7.86217 -1.91386 -8.29026 0.00138114 0.00515858 0.00325206
31 1 -7.11949 -1.19335 -7.16529 -0.00246663 0.00390355 0.00652782
33 6 -8.9384 -1.83689 -8.13173 0.00122223 0.0064354 -0.00146054
68 6 -7.6464 -0.290075 -6.85874 -0.00424893 0.00280146 0.00759878
34 6 -8.29648 -4.03303 -8.1983 -0.00225194 0.00593917 0.00725189
35 6 -6.70797 -3.63495 -8.92154 -0.00381922 0.00181365 0.0024498
37 6 -5.69068 -3.55987 -6.89184 0.00141699 0.00929552 -0.000457609
2 1 -7.42802 -3.37562 -8.14627 -0.0011608 0.00463149 0.00372229
3 1 -6.76847 -3.46497 -6.76611 0.00151588 0.00482681 0.00224835
4 2 -7.12039 -2.20281 -6.10708 -0.00274699 0.00218329 0.00515106
36 6 -7.15519 -4.31494 -6.2034 0.00627464 0.00210407 0.00159943
15 5 0.174702 2.32084 -0.194563 -0.000237078 0.00100956 -0.00114818
12 3 -3.0394 0.645264 -1.85251 -0.00105859 -0.00011139 0.00186795
13 3 -1.98809 1.50336 -1.56532 -0.000674896 7.38612e-05 0.000425626
14 3 -1.08687 1.19078 -0.558658 0.000796122 0.000126536 -0.00131465
40 6 -3.70524 0.92741 -2.56994 -0.00286022 0.000325753 0.0032905
41 6 -1.88776 2.37483 -2.08623 -0.00274916 0.000514237 0.000869633
117 5 12.4627 8.48088 14.023 -0.00010172 0.00128777 -0.000226564
69 1 12.167 10.6696 15.0454 -0.00298635 0.000836458 0.00138004
70 2 10.6884 9.60473 16.3345 -0.00014805 -0.00327164 0.00161024
86 3 11.4307 8.42013 14.3987 -9.10288e-06 -0.000167018 -0.000327217
88 4 11.3699 9.60055 15.2825 -0.00119438 -0.00103023 0.00107791
108 5 9.48717 7.85608 14.057 0.000492452 -0.0011692 -0.00043335
118 5 11.3828 7.57336 15.0946 0.000923929 -0.000848091 -0.000994946
122 6 12.1562 11.4347 15.6587 -0.00350859 0.000184176 0.00216776
38 6 -8.0373 -2.06078 -3.75548 -0.00212048 0.000727671 0.00623724
6 3 -7.03036 -1.90188 -3.76888 -0.00204445 0.000920605 0.00602179
39 6 -6.88121 -1.75036 -1.69815 -0.000859685 0.00126913 0.00607015
66 6 -4.44812 -1.65824 -5.85708 -0.00172934 -0.000559881 0.0059696
5 3 -6.3501 -1.90635 -4.9774 -0.00228903 0.00121567 0.00578766
7 3 -6.35437 -1.72026 -2.57077 -0.00127401 0.000671659 0.00584089
8 3 -4.9847 -1.48184 -2.56549 -0.00133065 -0.000754473 0.00525351
9 3 -4.32569 -1.35215 -1.33921 -9.90157e-05 -0.000101391 0.00477097
10 4 -4.77116 -1.99699 -0.365325 0.00086486 0.00140387 0.00572577
11 3 -3.21211 -0.534741 -1.12917 0.000615402 -0.000257851 0.00190105
28 3 -2.29018 -0.853884 -0.134139 0.00308742 -0.000973312 -0.00035027
29 3 -4.30656 -1.44477 -3.78612 -0.00156145 -0.00244507 0.00522891
30 3 -4.97752 -1.66107 -4.98484 -0.0021961 -0.00054553 0.00542031
65 6 -3.29788 -1.303 -3.81386 -0.00116078 -0.00384869 0.00533902
ITEM: TIMESTEP
3000
ITEM: NUMBER OF ATOMS
122
ITEM: BOX BOUNDS pp pp pp
0.0000000000000000e+00 2.0000000000000000e+01
0.0000000000000000e+00 2.0000000000000000e+01
0.0000000000000000e+00 2.0000000000000000e+01
ITEM: ATOMS id type xu yu zu vx vy vz
17 1 1.09906 4.2684 0.94532 0.00133043 -0.000673831 0.00143368
18 1 2.36268 3.59187 1.49124 0.0011673 -0.00333076 -0.0024767
19 1 3.5087 4.6101 1.3702 -0.00257958 0.000354759 0.000505895
20 1 4.77838 3.97727 1.91852 -0.00168546 -0.000177782 -0.00391575
21 1 5.96857 4.93548 2.01405 -0.00251686 0.000776847 -0.0102501
44 6 1.34696 4.807 0.0314401 0.0011969 0.00277774 0.00324281
45 6 0.748549 4.98677 1.68574 0.00259414 -0.00293865 0.00428896
46 6 2.20207 3.31892 2.53546 0.00244972 -0.00725127 -0.00301856
48 6 3.67415 4.8652 0.323093 -0.00373193 0.00563963 0.00180298
49 6 3.26853 5.51192 1.93402 -0.00390509 -0.00321364 0.00578174
50 6 4.56037 3.59139 2.91448 0.0019645 0.000607584 -0.00255341
52 6 6.11724 5.48186 1.08198 -0.00429206 -0.00252486 -0.0120467
53 6 5.8179 5.62863 2.84172 -0.00155442 0.00363474 -0.0126822
47 6 2.60045 2.6984 0.91318 0.00128416 -0.00113829 -0.00576543
51 6 5.04487 3.1489 1.26057 -0.00419846 -0.000539206 -0.00437917
22 1 7.15429 3.99884 2.2782 -0.00202921 0.00195024 -0.00762444
54 6 6.81576 3.17804 2.90956 -0.00207293 0.001769 -0.00752365
55 6 7.49751 3.58757 1.32807 -0.000250175 0.000844281 -0.00643773
56 6 8.81392 5.37585 2.29229 -0.00534105 0.00636607 -0.00357314
23 1 8.32633 4.68755 2.98246 -0.0033987 0.00309134 -0.00550285
24 1 9.32615 3.6156 3.45815 0.000507881 0.00594282 -0.00552151
25 1 10.3957 4.16704 4.40937 0.00280159 0.00441362 -0.0056792
57 6 7.95229 5.23367 3.84603 -0.0051277 0.000463179 -0.00471876
60 6 10.3554 5.2559 4.42773 0.00192148 0.00430959 -0.00347435
61 6 10.2189 3.7804 5.41331 0.00307702 0.00252419 -0.00644681
59 6 9.81966 3.18625 2.5858 -0.00105682 0.00498394 -0.00628763
16 1 -0.0513159 3.32431 0.608688 0.000360064 0.00223997 -0.00105005
43 6 -0.147628 2.56869 1.38707 -0.00275932 0.00167724 -0.00181769
42 6 -0.972093 3.90586 0.552981 0.00172117 0.00409621 -0.00289395
116 5 7.0977 11.2043 6.19383 0.00614582 0.00109732 -0.000873035
113 5 7.7039 9.4144 5.35649 0.00199989 -0.000770652 0.000526655
83 4 7.77695 9.34667 6.3748 0.00220604 -0.000497266 0.000507678
105 5 8.30925 7.52306 5.83054 0.00296049 -0.000330213 0.000820613
63 6 -0.0603415 0.0917138 0.232046 0.00152585 -0.00262529 0.000334866
64 6 -1.96612 -1.27556 0.633697 0.000673097 -0.00234161 -0.00550899
27 3 -0.977945 0.389451 -0.100064 0.00194604 -0.000372438 -1.81539e-05
92 5 6.80086 5.49092 9.03107 0.00179728 -0.00173055 -0.000606929
58 6 8.79901 2.82236 3.98735 0.00183008 0.00590703 -0.00503618
91 5 8.16491 5.05236 8.14873 0.00218817 -0.00176252 0.000193091
26 5 12.0266 3.646 3.84035 0.00559765 0.00801985 -0.00349338
62 7 12.6566 4.33855 4.827 0.00457265 0.0145781 -0.0073153
90 5 8.29754 5.2163 10.5671 4.67737e-05 -0.000875609 0.000838692
89 5 9.6283 5.52056 9.44743 0.000547386 -0.00252189 0.00115125
71 3 8.74547 5.97856 9.92346 0.000792469 -0.00155741 0.000552263
72 3 7.75796 5.91001 8.69204 0.00176316 -0.00167211 -0.000179341
95 5 6.44044 7.48705 7.98082 0.000508534 -0.00282585 -0.00138626
96 5 6.93583 6.33519 6.83637 0.00336031 -0.00179068 -0.000918383
74 3 7.33527 6.99389 7.61863 0.00186067 -0.00165623 -0.000301561
104 5 8.41227 13.1493 8.30231 -0.00231791 0.000385784 0.0049267
73 3 9.03654 7.26596 10.8491 0.000599517 -0.000981452 -0.000302518
75 3 10.1615 7.43398 12.0185 0.000531471 -0.000732869 -0.000138886
76 3 10.0988 11.7826 9.1212 -0.000953244 0.000539902 0.00119244
77 3 11.4034 12.725 9.03697 -0.00159663 0.00124853 0.00123185
78 3 8.57249 12.2104 8.85303 -0.00143563 -0.000498903 0.0027474
79 3 8.25593 8.00033 6.80859 0.00188817 -0.000597032 0.000739242
82 3 7.47024 11.1924 8.3273 -0.000259749 -0.000344614 8.03256e-06
85 4 7.47106 10.6024 6.94318 0.00280422 0.000101545 -4.06764e-05
93 5 8.05707 7.71008 11.0544 0.000484709 -0.00101738 -0.00100305
94 5 9.50043 7.95688 10.1774 0.00122192 -0.00104246 0.00021472
97 5 10.8048 6.55371 12.1109 0.00136269 -0.000161644 -0.000451153
98 5 10.7835 8.15226 11.4746 0.000247552 -0.000182082 0.00028483
99 5 10.0299 11.4367 10.1513 -0.000334726 -0.000947368 0.000886983
100 5 10.3095 10.9597 8.44834 -0.000655505 0.00180666 -0.000375084
102 5 11.5935 12.9881 7.98769 -0.00193987 0.00250822 0.00140808
106 5 9.30387 8.06274 7.05154 0.00181419 -0.00107556 0.000747491
107 5 9.52548 9.03597 13.503 -0.000210853 -0.000329075 -0.000825957
111 5 7.08538 10.5047 9.08488 -0.000259116 -0.00152275 -0.00109132
112 5 6.61781 11.8706 8.2585 -0.000910376 -0.001141 -0.000910713
114 5 13.1177 10.8153 10.9908 0.000581143 -0.000716325 -0.00143646
109 5 12.8964 13.1934 10.3781 -0.00149368 -0.0010228 0.00138055
81 3 12.8699 12.4685 9.55864 -0.00138402 0.000335412 0.000169574
103 5 8.17374 12.4469 9.84517 -0.00197712 -0.00369954 0.00345418
84 3 13.5539 11.0981 10.037 -0.000630136 -0.000221845 -0.00178859
87 3 15.078 10.9081 10.3848 -0.000319299 -0.000385791 -0.00307609
110 5 13.4435 12.9368 8.74911 -0.00129035 0.00182454 0.00111047
115 5 13.384 10.2965 9.31429 -0.00169597 0.000127157 -0.00195458
119 5 15.5287 11.5841 11.1249 6.11157e-05 -0.000369746 -0.00312142
120 5 15.7484 10.818 9.52056 -0.000731285 -0.000539385 -0.00357081
121 5 15.1146 9.9306 10.8671 -0.000358643 -0.000389621 -0.00291204
32 6 -9.18529 0.0382516 -5.96673 -0.00813218 -0.00315602 0.00239255
101 5 11.2643 13.654 9.60274 -0.00218608 0.000723539 0.00220185
1 1 -9.51598 -0.967186 -5.70541 -0.00725763 -0.00274942 0.00457053
31 1 -9.45604 -1.17543 -4.19442 -0.00636155 0.000383388 0.00480853
33 6 -10.5321 -1.13361 -6.06347 -0.00775926 -0.00408388 0.00571249
34 6 -9.10561 -2.65617 -6.98864 -0.00727321 -0.00578076 0.00896372
35 6 -7.75014 -1.50802 -6.80735 -0.00755606 -0.00417214 0.0053964
2 1 -8.5689 -2.01133 -6.29341 -0.00696378 -0.00382045 0.00697302
3 1 -8.00884 -2.84528 -5.13639 -0.00468904 -0.000542591 0.00811499
67 6 -9.19136 -0.242278 -3.6987 -0.00648665 0.00187548 0.00319962
37 6 -6.92073 -2.87961 -5.18589 -0.00436979 0.00197887 0.0071645
15 5 0.26118 2.57499 -1.00091 0.00244465 0.00286035 -0.000725069
12 3 -3.4695 1.24197 -0.987012 0.00191682 0.00363078 0.00196599
13 3 -2.35722 2.02406 -1.23152 0.00312774 0.00199992 0.00215906
14 3 -1.12086 1.58589 -0.784937 0.00329728 0.000769993 0.00152244
40 6 -4.38508 1.60059 -1.25242 0.00170638 0.0045492 0.00275341
41 6 -2.44813 2.91894 -1.71334 0.00473573 0.00278603 0.00346832
80 3 9.94163 8.02046 13.5289 -0.000347223 -0.000696122 -0.000477265
117 5 12.0186 8.68526 14.3385 -0.0013257 -0.00101712 0.00177797
69 1 11.3368 10.2137 15.9803 -0.00154682 -0.00204461 0.00198905
70 2 9.92852 8.63994 16.7005 -0.00417486 -0.000667423 -0.000620095
86 3 11.084 8.18815 14.6469 -0.00112711 -0.00144296 0.000710095
88 4 10.7061 9.03161 15.7981 -0.00229085 -0.00158827 0.000664221
108 5 9.22023 7.36096 14.0234 -0.000911029 -0.000646908 -0.0010056
118 5 11.338 7.24549 15.1473 -0.0011714 -0.00142417 0.000560381
122 6 11.1394 10.7605 16.7704 -0.00206535 -0.00225696 0.00194638
68 6 -10.4394 -1.49616 -3.8505 -0.00565544 -5.38733e-05 0.00564199
4 2 -8.47905 -2.22718 -3.8866 -0.00488854 0.00144965 0.00642451
36 6 -8.40095 -3.86068 -5.20471 -0.00222982 -0.00143068 0.0103244
38 6 -8.17436 -2.96606 -1.46892 -0.000449519 0.00233473 0.00592976
6 3 -7.4417 -2.31547 -1.74953 -0.00146348 0.00280944 0.00382298
39 6 -6.48317 -2.42173 0.0774186 0.000928469 0.00416281 0.00246862
66 6 -6.46054 -0.451117 -4.30649 -0.00161057 -0.000105944 0.00238358
5 3 -7.45877 -1.7893 -3.03158 -0.00295427 0.00247574 0.00413227
7 3 -6.44225 -1.98958 -0.844181 -0.000450475 0.00387628 0.00230868
8 3 -5.4151 -1.10949 -1.18108 -0.00022132 0.00304337 0.000882774
9 3 -4.389 -0.898167 -0.237934 0.00101688 0.00243842 -0.000516436
10 4 -4.33882 -1.60727 0.793851 0.00218821 0.00230231 -0.000146338
11 3 -3.33152 -0.000253591 -0.366647 0.00111581 0.00227122 -0.000251125
28 3 -2.09149 -0.39392 0.136054 0.00112154 -0.000147575 -0.00212935
29 3 -5.45791 -0.571127 -2.47864 -0.000858498 0.00255982 0.000982025
30 3 -6.47087 -0.877243 -3.3795 -0.00158371 0.00101486 0.00226492
65 6 -4.72063 0.0252624 -2.8357 -0.00152303 0.0035116 0.000170056
ITEM: TIMESTEP
4000
ITEM: NUMBER OF ATOMS
122
ITEM: BOX BOUNDS pp pp pp
0.0000000000000000e+00 2.0000000000000000e+01
0.0000000000000000e+00 2.0000000000000000e+01
0.0000000000000000e+00 2.0000000000000000e+01
ITEM: ATOMS id type xu yu zu vx vy vz
17 1 1.50538 4.54965 0.122246 -0.00143306 0.00623816 -0.00677321
18 1 3.00152 4.22648 0.166704 -0.00259096 0.000867326 0.00175748
19 1 3.85032 5.47929 0.417634 0.000993417 -0.00125341 -0.00366706