Created by /home/rramji/scripts/createLammpsInput.pl on Mon Aug 28 17:25:23 2023

         109 atoms
         110 bonds
         204 angles
         299 dihedrals
          45 impropers

           7 atom types
          12 bond types
           4 angle types
           9 dihedral types
           1 improper types

		   0.000000  25.766700 xlo xhi
		   0.000000  28.953100 ylo yhi
		   0.000000  16.103600 zlo zhi

Masses

    1 1.2011E+01 # C_R    
    2 1.0080E+00 # H_     
    3 1.2011E+01 # C_3    
    4 1.5999E+01 # O_2    
    5 1.5999E+01 # O_R    
    6 3.2060E+01 # S_3    
    7 1.0080E+00 # H___A  

Pair Coeffs

    1    0.09510    3.47299 # C_R C_R 
    2    0.01520    2.84642 # H_ H_ 
    3    0.09510    3.47299 # C_3 C_3 
    4    0.09570    3.03315 # O_2 O_2 
    5    0.09570    3.03315 # O_R O_R 
    6    0.34400    3.59032 # S_3 S_3 
    7          0    2.84642 # H___A H___A 

Bond Coeffs

    1      350     1.02 # C_R H_ 
    2      525     1.39 # C_R C_R 
    3      350     1.46 # C_R C_3 
    4      350     1.32 # O_2 C_3 
    5      350     1.53 # C_3 C_3 
    6      525     1.35 # O_R C_R 
    7      350     1.42 # O_R C_3 
    8      350     1.09 # C_3 H_ 
    9      350      1.8 # S_3 C_3 
   10      350     1.36 # S_3 H___A 
   11      700     1.25 # O_2 C_R 
   12      350     0.98 # O_R H___A 

Angle Coeffs

    1       50      120 # X C_R X 
    2       50  109.471 # X C_3 X 
    3       50      120 # X O_R X 
    4       50     92.1 # X S_3 X 

Dihedral Coeffs

    1 0.0833333       -1        6 # C_R C_R C_3 X 
    2 0.166667       -1        6 # C_R O_R C_3 X 
    3 0.0833333       -1        6 # O_2 C_R C_3 X 
    4 0.0833333       -1        6 # O_R C_R C_3 X 
    5 0.111111        1        3 # X C_3 C_3 X 
    6 0.166667        1        3 # X C_R C_3 X 
    7    3.125       -1        2 # X C_R C_R X 
    8     6.25       -1        2 # X O_R C_R X 
    9 0.333333        1        3 # X S_3 C_3 X 

Improper Coeffs

    1  13.3333        0 # C_R X X X 

Atoms

       1        1        1 -0.13170000  -13.51640    0.85130    0.72590    0    0    0
       2        1        2  0.16830000  -14.19630    0.39370    0.05480    0    0    0
       3        1        1 -0.13170000  -13.20660    0.23870    1.93520    0    0    0
       4        1        1 -0.13170000  -12.31020    0.84000    2.81600    0    0    0
       5        1        1 -0.12510000  -11.71140    2.06590    2.50200    0    0    0
       6        1        3  0.23150000  -10.73870    2.82030    3.43140    0    0    0
       7        1        4 -0.92340000   -9.61700    3.13020    2.56000    0    0    0
       8        1        1 -0.12510000  -11.37140    4.16750    3.83610    0    0    0
       9        1        1 -0.13170000  -12.62960    4.18280    4.44700    0    0    0
      10        1        1 -0.13170000  -13.23660    5.38240    4.80510    0    0    0
      11        1        1  0.10200000  -12.59320    6.58470    4.53730    0    0    0
      12        1        5 -0.34810000  -13.24560    7.74240    4.90510    0    0    0
      13        1        3  0.13880000  -12.80320    9.07570    4.58970    0    0    0
      14        1        3 -0.14190000  -13.82970   10.11440    5.04840    0    0    0
      15        1        3 -0.14190000  -13.36650   11.54920    4.74830    0    0    0
      16        1        3 -0.14190000  -14.42820   12.56410    5.19950    0    0    0
      17        1        3 -0.14190000  -13.96120   14.00300    4.92990    0    0    0
      18        1        3 -0.14190000  -15.03060   15.01260    5.37470    0    0    0
      19        1        3 -0.14190000  -14.55650   16.45430    5.13530    0    0    0
      20        1        3 -0.14190000  -15.62930   17.46010    5.58060    0    0    0
      21        1        3 -0.14190000  -15.13770   18.90320    5.38610    0    0    0
      22        1        3  0.08970000  -16.19600   19.91770    5.83140    0    0    0
      23        1        6 -0.39650000  -15.50950   21.57730    5.59840    0    0    0
      24        1        1 -0.13170000  -11.34630    6.59710    3.91250    0    0    0
      25        1        1 -0.13170000  -10.74760    5.39080    3.56190    0    0    0
      26        1        1 -0.13170000  -12.02970    2.66220    1.28050    0    0    0
      27        1        1 -0.13170000  -12.92380    2.06480    0.39770    0    0    0
      28        1        2  0.16830000  -13.65000   -0.68980    2.18650    0    0    0
      29        1        2  0.16830000  -12.08410    0.35000    3.72270    0    0    0
      30        1        2  0.16830000  -13.13230    3.26870    4.62460    0    0    0
      31        1        2  0.16830000  -14.18760    5.38680    5.26910    0    0    0
      32        1        2  0.09960000  -11.85090    9.25500    5.09140    0    0    0
      33        1        2  0.09960000  -12.66630    9.15190    3.50940    0    0    0
      34        1        2  0.09960000  -14.77350    9.91460    4.53760    0    0    0
      35        1        2  0.09960000  -13.98790    9.99390    6.12180    0    0    0
      36        1        2  0.09960000  -12.43040   11.74580    5.27620    0    0    0
      37        1        2  0.09960000  -13.19460   11.65980    3.67490    0    0    0
      38        1        2  0.09960000  -15.35950   12.37760    4.65930    0    0    0
      39        1        2  0.09960000  -14.61640   12.43980    6.26870    0    0    0
      40        1        2  0.09960000  -13.03500   14.19150    5.47790    0    0    0
      41        1        2  0.09960000  -13.76670   14.12870    3.86230    0    0    0
      42        1        2  0.09960000  -15.95120   14.83540    4.81370    0    0    0
      43        1        2  0.09960000  -15.23900   14.87320    6.43810    0    0    0
      44        1        2  0.09960000  -13.63760   16.63080    5.69960    0    0    0
      45        1        2  0.09960000  -14.34450   16.59690    4.07300    0    0    0
      46        1        2  0.09960000  -16.53780   17.30290    4.99430    0    0    0
      47        1        2  0.09960000  -15.86110   17.29730    6.63590    0    0    0
      48        1        2  0.09960000  -14.22960   19.06390    5.97110    0    0    0
      49        1        2  0.09960000  -14.90460   19.07590    4.33330    0    0    0
      50        1        2  0.09960000  -17.09900   19.80560    5.22870    0    0    0
      51        1        2  0.09960000  -16.43850   19.76730    6.88490    0    0    0
      52        1        7  0.19770000  -16.56980   22.26330    6.03980    0    0    0
      53        1        2  0.16830000  -10.85220    7.50470    3.69510    0    0    0
      54        1        2  0.16830000   -9.80800    5.39290    3.06970    0    0    0
      55        1        2  0.16830000  -11.56530    3.58230    1.02960    0    0    0
      56        1        2  0.16830000  -13.14470    2.53680   -0.52420    0    0    0
      57        1        1  0.66790000    1.39680   11.16280   -0.57760    0    0    0
      58        1        2  0.09960000   -2.01760   10.17000    1.61620    0    0    0
      59        1        3 -0.07980000    0.49630   10.74790    0.58200    0    0    0
      60        1        2  0.09960000   -2.19240    8.54420    0.95240    0    0    0
      61        1        3 -0.06040000  -10.10650    1.97060    4.60180    0    0    0
      62        1        2  0.09960000   -9.99180    0.98100    4.16130    0    0    0
      63        1        2  0.09960000   -0.07240   11.62540    0.88790    0    0    0
      64        1        2  0.09960000    1.14220   10.45360    1.40700    0    0    0
      65        1        3 -0.14190000   -0.47170    9.59990    0.22670    0    0    0
      66        1        2  0.09960000   -1.03720    9.89010   -0.66270    0    0    0
      67        1        3 -0.14190000   -1.47170    9.26390    1.34800    0    0    0
      68        1        3 -0.14190000   -0.80560    8.65660    2.59790    0    0    0
      69        1        3 -0.14190000   -1.82230    8.16410    3.64510    0    0    0
      70        1        2  0.09960000   -2.52320    7.47110    3.17410    0    0    0
      71        1        3 -0.14190000   -2.60230    9.30890    4.31850    0    0    0
      72        1        2  0.09960000   -3.17210    9.85150    3.56350    0    0    0
      73        1        2  0.09960000   -1.89880   10.00730    4.77630    0    0    0
      74        1        3 -0.00120000   -3.59560    8.83690    5.39590    0    0    0
      75        1        2  0.09960000   -4.17170    9.68770    5.73710    0    0    0
      76        1        1 -0.27250000   -2.93910    8.18450    6.59850    0    0    0
      77        1        2  0.16830000   -1.90600    8.39830    6.72110    0    0    0
      78        1        1 -0.27250000   -3.57840    7.40580    7.48710    0    0    0
      79        1        2  0.16830000   -3.05180    6.97750    8.30450    0    0    0
      80        1        3 -0.00120000   -5.05230    7.05340    7.43360    0    0    0
      81        1        3 -0.14190000   -5.30620    5.68430    6.78530    0    0    0
      82        1        2  0.09960000   -4.83970    5.67730    5.79820    0    0    0
      83        1        3 -0.14190000   -6.79930    5.35680    6.63570    0    0    0
      84        1        2  0.09960000   -7.27430    6.11600    6.01010    0    0    0
      85        1        2  0.09960000   -7.27900    5.36230    7.61690    0    0    0
      86        1        3 -0.14190000   -6.99200    3.98030    5.98420    0    0    0
      87        1        2  0.09960000   -6.46690    3.95450    5.02610    0    0    0
      88        1        3 -0.14190000   -8.48110    3.70520    5.73240    0    0    0
      89        1        2  0.09960000   -8.87380    4.48100    5.08020    0    0    0
      90        1        2  0.09960000   -9.02730    3.72160    6.67510    0    0    0
      91        1        3 -0.14190000   -8.66350    2.34760    5.03550    0    0    0
      92        1        2  0.09960000   -8.03040    2.32590    4.14590    0    0    0
      93        1        3 -0.22340000  -10.99520    1.84020    5.85860    0    0    0
      94        1        2  0.09960000  -10.53810    1.14970    6.56680    0    0    0
      95        1        2  0.09960000  -11.98140    1.46600    5.59630    0    0    0
      96        1        2  0.09960000  -11.11490    2.81250    6.33470    0    0    0
      97        1        2  0.09960000   -8.29040    1.56530    5.69590    0    0    0
      98        1        2  0.09960000   -6.58070    3.20310    6.63110    0    0    0
      99        1        2  0.09960000   -4.82400    4.91550    7.39230    0    0    0
     100        1        2  0.09960000   -5.61020    7.81830    6.91110    0    0    0
     101        1        2  0.09960000   -5.45540    7.06020    8.43840    0    0    0
     102        1        2  0.09960000   -4.31200    8.16220    4.94580    0    0    0
     103        1        2  0.09960000   -1.27830    7.60940    4.41300    0    0    0
     104        1        2  0.09960000   -0.14340    9.38850    3.06340    0    0    0
     105        1        2  0.09960000   -0.19740    7.80300    2.28930    0    0    0
     106        1        2  0.09960000    0.10450    8.70820   -0.03260    0    0    0
     107        1        4 -0.55940000    1.45830   10.61410   -1.66520    0    0    0
     108        1        5 -0.64090000    2.17150   12.23200   -0.32920    0    0    0
     109        1        7  0.51190000    2.66770   12.36560   -1.13870    0    0    0


Bonds

       1        1        1        2 
       2        2        1        3 
       3        2        1       27 
       4        2        3        4 
       5        1        3       28 
       6        2        4        5 
       7        1        4       29 
       8        3        5        6 
       9        2        5       26 
      10        4        6        7 
      11        3        6        8 
      12        5        6       61 
      13        2        8        9 
      14        2        8       25 
      15        2        9       10 
      16        1        9       30 
      17        2       10       11 
      18        1       10       31 
      19        6       11       12 
      20        2       11       24 
      21        7       12       13 
      22        5       13       14 
      23        8       13       32 
      24        8       13       33 
      25        5       14       15 
      26        8       14       34 
      27        8       14       35 
      28        5       15       16 
      29        8       15       36 
      30        8       15       37 
      31        5       16       17 
      32        8       16       38 
      33        8       16       39 
      34        5       17       18 
      35        8       17       40 
      36        8       17       41 
      37        5       18       19 
      38        8       18       42 
      39        8       18       43 
      40        5       19       20 
      41        8       19       44 
      42        8       19       45 
      43        5       20       21 
      44        8       20       46 
      45        8       20       47 
      46        5       21       22 
      47        8       21       48 
      48        8       21       49 
      49        9       22       23 
      50        8       22       50 
      51        8       22       51 
      52       10       23       52 
      53        2       24       25 
      54        1       24       53 
      55        1       25       54 
      56        2       26       27 
      57        1       26       55 
      58        1       27       56 
      59        3       57       59 
      60       11       57      107 
      61        6       57      108 
      62        8       58       67 
      63        8       59       63 
      64        8       59       64 
      65        5       59       65 
      66        8       60       67 
      67        8       61       62 
      68        5       61       91 
      69        5       61       93 
      70        8       65       66 
      71        5       65       67 
      72        8       65      106 
      73        5       67       68 
      74        5       68       69 
      75        8       68      104 
      76        8       68      105 
      77        8       69       70 
      78        5       69       71 
      79        8       69      103 
      80        8       71       72 
      81        8       71       73 
      82        5       71       74 
      83        8       74       75 
      84        3       74       76 
      85        8       74      102 
      86        1       76       77 
      87        2       76       78 
      88        1       78       79 
      89        3       78       80 
      90        5       80       81 
      91        8       80      100 
      92        8       80      101 
      93        8       81       82 
      94        5       81       83 
      95        8       81       99 
      96        8       83       84 
      97        8       83       85 
      98        5       83       86 
      99        8       86       87 
     100        5       86       88 
     101        8       86       98 
     102        8       88       89 
     103        8       88       90 
     104        5       88       91 
     105        8       91       92 
     106        8       91       97 
     107        8       93       94 
     108        8       93       95 
     109        8       93       96 
     110       12      108      109 

Angles

       1        1        3        1        2 
       2        1        3        1       27 
       3        1        3        4       29 
       4        1        4        3        1 
       5        1        4        3       28 
       6        1        4        5       26 
       7        1        5        4        3 
       8        1        5        4       29 
       9        1        5       26       27 
      10        1        6        5        4 
      11        1        6        5       26 
      12        1        6        8       25 
      13        2        6       61       62 
      14        2        7        6        5 
      15        2        7        6       61 
      16        2        8        6        5 
      17        2        8        6        7 
      18        2        8        6       61 
      19        1        8        9       10 
      20        1        8        9       30 
      21        1        8       25       24 
      22        1        8       25       54 
      23        1        9        8        6 
      24        1        9        8       25 
      25        1        9       10       11 
      26        1        9       10       31 
      27        1       12       11       10 
      28        3       13       12       11 
      29        2       14       13       12 
      30        2       15       14       13 
      31        2       16       15       14 
      32        2       17       16       15 
      33        2       18       17       16 
      34        2       19       18       17 
      35        2       20       19       18 
      36        2       21       20       19 
      37        2       22       21       20 
      38        2       23       22       21 
      39        1       24       11       10 
      40        1       24       11       12 
      41        1       25       24       11 
      42        1       26       27        1 
      43        1       27        1        2 
      44        1       28        3        1 
      45        1       30        9       10 
      46        1       31       10       11 
      47        2       32       13       12 
      48        2       32       13       14 
      49        2       33       13       12 
      50        2       33       13       14 
      51        2       33       13       32 
      52        2       34       14       13 
      53        2       34       14       15 
      54        2       35       14       13 
      55        2       35       14       15 
      56        2       35       14       34 
      57        2       36       15       14 
      58        2       36       15       16 
      59        2       37       15       14 
      60        2       37       15       16 
      61        2       37       15       36 
      62        2       38       16       15 
      63        2       38       16       17 
      64        2       39       16       15 
      65        2       39       16       17 
      66        2       39       16       38 
      67        2       40       17       16 
      68        2       40       17       18 
      69        2       41       17       16 
      70        2       41       17       18 
      71        2       41       17       40 
      72        2       42       18       17 
      73        2       42       18       19 
      74        2       43       18       17 
      75        2       43       18       19 
      76        2       43       18       42 
      77        2       44       19       18 
      78        2       44       19       20 
      79        2       45       19       18 
      80        2       45       19       20 
      81        2       45       19       44 
      82        2       46       20       19 
      83        2       46       20       21 
      84        2       47       20       19 
      85        2       47       20       21 
      86        2       47       20       46 
      87        2       48       21       20 
      88        2       48       21       22 
      89        2       49       21       20 
      90        2       49       21       22 
      91        2       49       21       48 
      92        2       50       22       21 
      93        2       50       22       23 
      94        2       51       22       21 
      95        2       51       22       23 
      96        2       51       22       50 
      97        4       52       23       22 
      98        1       53       24       11 
      99        1       53       24       25 
     100        1       54       25       24 
     101        1       55       26        5 
     102        1       55       26       27 
     103        1       56       27        1 
     104        1       56       27       26 
     105        3       57      108      109 
     106        1       59       57      107 
     107        1       59       57      108 
     108        2       59       65      106 
     109        2       60       67       58 
     110        2       61        6        5 
     111        2       63       59       57 
     112        2       64       59       57 
     113        2       64       59       63 
     114        2       65       59       57 
     115        2       65       59       63 
     116        2       65       59       64 
     117        2       65       67       58 
     118        2       65       67       60 
     119        2       66       65       59 
     120        2       66       65      106 
     121        2       67       65       59 
     122        2       67       65       66 
     123        2       67       65      106 
     124        2       67       68      104 
     125        2       67       68      105 
     126        2       68       67       58 
     127        2       68       67       60 
     128        2       68       67       65 
     129        2       68       69      103 
     130        2       69       68       67 
     131        2       69       68      104 
     132        2       69       68      105 
     133        2       70       69       68 
     134        2       70       69      103 
     135        2       71       69       68 
     136        2       71       69       70 
     137        2       71       69      103 
     138        2       71       74      102 
     139        2       72       71       69 
     140        2       73       71       69 
     141        2       73       71       72 
     142        2       74       71       69 
     143        2       74       71       72 
     144        2       74       71       73 
     145        2       75       74       71 
     146        2       75       74      102 
     147        2       76       74       71 
     148        2       76       74       75 
     149        2       76       74      102 
     150        1       77       76       74 
     151        1       78       76       74 
     152        1       78       76       77 
     153        2       78       80      100 
     154        2       78       80      101 
     155        1       79       78       76 
     156        1       80       78       76 
     157        1       80       78       79 
     158        2       81       80       78 
     159        2       81       80      100 
     160        2       81       80      101 
     161        2       82       81       80 
     162        2       83       81       80 
     163        2       83       81       82 
     164        2       84       83       81 
     165        2       85       83       81 
     166        2       85       83       84 
     167        2       86       83       81 
     168        2       86       83       84 
     169        2       86       83       85 
     170        2       87       86       83 
     171        2       88       86       83 
     172        2       88       86       87 
     173        2       88       91       61 
     174        2       89       88       86 
     175        2       90       88       86 
     176        2       90       88       89 
     177        2       91       61        6 
     178        2       91       61       62 
     179        2       91       88       86 
     180        2       91       88       89 
     181        2       91       88       90 
     182        2       92       91       61 
     183        2       92       91       88 
     184        2       93       61        6 
     185        2       93       61       62 
     186        2       93       61       91 
     187        2       94       93       61 
     188        2       95       93       61 
     189        2       95       93       94 
     190        2       96       93       61 
     191        2       96       93       94 
     192        2       96       93       95 
     193        2       97       91       61 
     194        2       97       91       88 
     195        2       97       91       92 
     196        2       98       86       83 
     197        2       98       86       87 
     198        2       98       86       88 
     199        2       99       81       80 
     200        2       99       81       82 
     201        2       99       81       83 
     202        2      101       80      100 
     203        2      105       68      104 
     204        1      108       57      107 

Dihedrals

       1        7        3        1       27       26 
       2        7        3        4        5       26 
       3        7        4        3        1        2 
       4        7        4        3        1       27 
       5        7        4        5       26       27 
       6        7        5        4        3        1 
       7        7        5        4        3       28 
       8        1        5        6        8       25 
       9        7        5       26       27        1 
      10        7        6        5        4        3 
      11        7        6        5        4       29 
      12        7        6        5       26       27 
      13        7        6        5       26       55 
      14        7        6        8        9       10 
      15        7        6        8        9       30 
      16        7        6        8       25       24 
      17        7        6        8       25       54 
      18        1        7        6        5        4 
      19        1        7        6        5       26 
      20        1        7        6        8       25 
      21        5        7        6       61       62 
      22        1        8        6        5        4 
      23        1        8        6        5       26 
      24        5        8        6       61       62 
      25        7        8        9       10       11 
      26        7        8        9       10       31 
      27        7        8       25       24       11 
      28        7        8       25       24       53 
      29        1        9        8        6        5 
      30        1        9        8        6        7 
      31        1        9        8        6       61 
      32        7        9        8       25       24 
      33        7        9        8       25       54 
      34        7        9       10       11       12 
      35        7        9       10       11       24 
      36        8       13       12       11       10 
      37        2       14       13       12       11 
      38        5       15       14       13       12 
      39        5       16       15       14       13 
      40        5       17       16       15       14 
      41        5       18       17       16       15 
      42        5       19       18       17       16 
      43        5       20       19       18       17 
      44        5       21       20       19       18 
      45        5       22       21       20       19 
      46        5       23       22       21       20 
      47        8       24       11       12       13 
      48        7       25        8        9       10 
      49        7       25       24       11       10 
      50        7       25       24       11       12 
      51        7       26       27        1        2 
      52        7       28        3        1        2 
      53        7       28        3        1       27 
      54        7       29        4        3        1 
      55        7       29        4        3       28 
      56        7       29        4        5       26 
      57        7       30        9        8       25 
      58        7       30        9       10       11 
      59        7       31       10        9       30 
      60        7       31       10       11       12 
      61        7       31       10       11       24 
      62        2       32       13       12       11 
      63        5       32       13       14       15 
      64        2       33       13       12       11 
      65        5       33       13       14       15 
      66        5       34       14       13       12 
      67        5       34       14       13       32 
      68        5       34       14       13       33 
      69        5       34       14       15       16 
      70        5       35       14       13       12 
      71        5       35       14       13       32 
      72        5       35       14       13       33 
      73        5       35       14       15       16 
      74        5       36       15       14       13 
      75        5       36       15       14       34 
      76        5       36       15       14       35 
      77        5       36       15       16       17 
      78        5       37       15       14       13 
      79        5       37       15       14       34 
      80        5       37       15       14       35 
      81        5       37       15       16       17 
      82        5       38       16       15       14 
      83        5       38       16       15       36 
      84        5       38       16       15       37 
      85        5       38       16       17       18 
      86        5       39       16       15       14 
      87        5       39       16       15       36 
      88        5       39       16       15       37 
      89        5       39       16       17       18 
      90        5       40       17       16       15 
      91        5       40       17       16       38 